/*--------------------------------*- C++ -*----------------------------------*\
| =========                 |                                                 |
| \\      /  F ield         | OpenFOAM: The Open Source CFD Toolbox           |
|  \\    /   O peration     | Version:  v1812                                 |
|   \\  /    A nd           | Web:      www.OpenFOAM.com                      |
|    \\/     M anipulation  |                                                 |
\*---------------------------------------------------------------------------*/
FoamFile
{
    version     2.0;
    format      ascii;
    class       volScalarField;
    location    "300";
    object      beta;
}
// * * * * * * * * * * * * * * * * * * * * * * * * * * * * * * * * * * * * * //

dimensions      [0 0 0 0 0 0 0];


internalField   nonuniform List<scalar> 
366376
(
0.0643059
0.0649891
0.0658739
0.0667501
0.067607
0.0683859
0.0690458
0.0695682
0.0699565
0.0702287
0.0704099
0.070526
0.0705987
0.0706448
0.0706754
0.0706969
0.0707126
0.0707244
0.0707332
0.0707397
0.0707445
0.0707479
0.0707504
0.0707524
0.0707541
0.0707557
0.0707578
0.0707606
0.0707637
0.0707669
0.07077
0.0707728
0.0707754
0.0707778
0.07078
0.0707819
0.0707836
0.070785
0.0707864
0.0707875
0.0707885
0.0707894
0.0707902
0.0707908
0.0707914
0.070792
0.0707925
0.0707929
0.0707933
0.0707936
0.070794
0.0707943
0.0707946
0.0707948
0.0707951
0.0707953
0.0707955
0.0707958
0.070796
0.0707962
0.0707964
0.0707966
0.0707968
0.070797
0.0707972
0.0707974
0.0707976
0.0707978
0.070798
0.0707982
0.0707984
0.0707987
0.0707989
0.0707991
0.0707994
0.0707996
0.0707999
0.0707998
0.0707996
0.0707993
0.070799
0.0707986
0.0707983
0.070798
0.0707976
0.0707972
0.0707968
0.0707964
0.070796
0.0707956
0.0707951
0.0707946
0.0707941
0.0707936
0.0707931
0.0707925
0.070792
0.0707914
0.0707908
0.0707901
0.0707895
0.0707888
0.0707881
0.0707874
0.0707867
0.0707859
0.0707851
0.0707843
0.0707835
0.0707827
0.0707818
0.070781
0.0707801
0.0707792
0.0707783
0.0707774
0.0707765
0.0707756
0.0707747
0.0707737
0.0707722
0.0707711
0.07077
0.0707689
0.0707677
0.0707666
0.0707655
0.0707644
0.0707632
0.0707621
0.070761
0.0707599
0.0707588
0.0707577
0.0707566
0.0707556
0.0707545
0.0707535
0.0707525
0.0707516
0.0707507
0.0707498
0.0707489
0.0707481
0.0707473
0.0707466
0.0707459
0.0707453
0.0707447
0.0707442
0.0707437
0.0707434
0.0707431
0.070743
0.0707431
0.0707435
0.0707442
0.0707455
0.0707473
0.0707497
0.0707524
0.0707551
0.0707575
0.0707595
0.0707612
0.0707626
0.0707637
0.0707648
0.0707657
0.0707665
0.0707672
0.0707679
0.0707685
0.0707691
0.0707697
0.0707703
0.0707709
0.0707715
0.0707722
0.0707729
0.0707736
0.0707743
0.0707751
0.0707759
0.0707768
0.0707776
0.0707786
0.0707795
0.0707804
0.0707814
0.0707823
0.0707832
0.0707841
0.070785
0.0707859
0.0707867
0.0707876
0.0707884
0.0707891
0.0707898
0.0707906
0.0707912
0.0707919
0.0707925
0.0707931
0.0707936
0.0707942
0.0707947
0.0707952
0.0707956
0.070796
0.0707963
0.0707964
0.070796
0.0707945
0.0707958
0.0707821
0.0707968
0.0707996
0.0707918
0.0707952
0.0707916
0.07079
0.0707877
0.0707854
0.0707833
0.0707816
0.0707804
0.0707802
0.0707829
0.070792
0.0707893
0.0707645
0.0707472
0.0707515
0.0707683
0.0707804
0.070787
0.0707908
0.0707929
0.0707939
0.070794
0.0707937
0.0707929
0.0707917
0.0707905
0.0707896
0.0707884
0.0707878
0.0707873
0.0707866
0.0707856
0.0707838
0.070785
0.0707867
0.070786
0.0707863
0.0707867
0.0707871
0.0707876
0.0707881
0.0707888
0.0707895
0.0707903
0.0707912
0.0707922
0.0707932
0.0707943
0.0707955
0.0707968
0.0707981
0.0707995
0.070799
0.0707974
0.0707958
0.070794
0.0707922
0.0707903
0.0707884
0.0707864
0.0707843
0.0707821
0.0707798
0.0707775
0.070775
0.0707726
0.07077
0.0707674
0.0707646
0.0707619
0.070759
0.0707561
0.0707531
0.07075
0.0707468
0.0707436
0.0707404
0.070737
0.0707336
0.0707301
0.0707266
0.070723
0.0707193
0.0707156
0.0707118
0.0707079
0.070704
0.0706995
0.0706947
0.0706888
0.0706817
0.0706759
0.0706712
0.0706663
0.0706613
0.0706562
0.070651
0.0706458
0.0706404
0.070635
0.0706294
0.0706238
0.070618
0.0706121
0.0706061
0.0706
0.0705938
0.0705875
0.070581
0.0705743
0.0705676
0.0705607
0.0705538
0.0705472
0.0705411
0.0705359
0.0705321
0.0705296
0.0705281
0.0705273
0.0705265
0.0705254
0.0705238
0.0705209
0.0705157
0.0705078
0.0704971
0.0704826
0.0704709
0.0704812
0.0705019
0.0704456
0.0700507
0.0684568
0.0667686
0.0674124
0.0705197
0.0691307
0.0696841
0.0703096
0.0705611
0.0707538
0.0706986
0.0705931
0.0705153
0.0704552
0.0704068
0.0703662
0.070331
0.0702996
0.070271
0.0702444
0.0702194
0.0701954
0.0701722
0.0701497
0.0701275
0.0701056
0.0700839
0.0700623
0.0700408
0.0700192
0.0699975
0.0699758
0.0699539
0.069932
0.0699098
0.0698876
0.0698653
0.0698428
0.0698203
0.0697976
0.069775
0.0697523
0.0697296
0.069707
0.0696844
0.0696621
0.0696399
0.0696186
0.0695917
0.0695626
0.0695392
0.069518
0.0694988
0.0694816
0.0694653
0.0694502
0.0694363
0.0694238
0.0694128
0.0694035
0.0693959
0.0693902
0.0693866
0.0693851
0.0693859
0.0693891
0.0693947
0.0694029
0.0694137
0.0694271
0.0694432
0.0694619
0.0694833
0.0695072
0.0695336
0.0695623
0.0695933
0.0696263
0.069661
0.0696973
0.0697347
0.0697728
0.0698111
0.069849
0.0698857
0.0699201
0.0699512
0.0699775
0.0699988
0.0700239
0.0700414
0.0700563
0.0700666
0.0700586
0.0700238
0.0699508
0.0698267
0.0696391
0.0693812
0.0690596
0.0687023
0.0683636
0.0681228
0.0680615
0.0681974
0.0685897
0.0692359
0.0698307
0.070277
0.0705952
0.0707855
0.0706469
0.0705676
0.0705281
0.0705147
0.0705175
0.0705294
0.0705458
0.070564
0.0705825
0.0706002
0.0706166
0.0706315
0.0706449
0.0706576
0.0706695
0.0706807
0.0706912
0.0707013
0.070711
0.0707203
0.0707293
0.0707379
0.0707464
0.0707552
0.0707613
0.0707734
0.0707808
0.0707776
0.0707982
0.0707968
0.0707753
0.0707852
0.0707777
0.0707756
0.070774
0.0707729
0.0707722
0.0707718
0.0707715
0.0707714
0.0707714
0.0707714
0.0707714
0.0707715
0.0707718
0.0707721
0.0707725
0.0707729
0.0707734
0.0707738
0.0707744
0.0707749
0.0707755
0.0707762
0.0707769
0.0707777
0.0707786
0.0707795
0.0707805
0.0707816
0.0707827
0.0707838
0.070785
0.0707863
0.0707876
0.070789
0.0707905
0.0707918
0.0707932
0.0707947
0.0707962
0.0707977
0.0707992
0.0707992
0.0707976
0.070796
0.0707943
0.0707925
0.0707908
0.070789
0.0707871
0.0707852
0.0707832
0.0707813
0.0707792
0.0707772
0.0707752
0.0707732
0.0707715
0.0707702
0.070767
0.0707849
0.0706911
0.0698851
0.067823
0.0675734
0.0698613
0.0706024
0.0707328
0.0707397
0.0707395
0.0707374
0.0707349
0.0707324
0.0707297
0.070727
0.0707243
0.0707215
0.0707187
0.0707159
0.070713
0.0707101
0.0707072
0.0707042
0.0707013
0.0706983
0.0706952
0.0706921
0.070689
0.0706858
0.0706824
0.0706789
0.0706752
0.0706711
0.0706666
0.0706622
0.0706562
0.0706478
0.070642
0.070639
0.0706354
0.070632
0.0706293
0.0706276
0.0706257
0.0706235
0.0706214
0.0706193
0.0706171
0.070615
0.070613
0.0706109
0.0706088
0.0706068
0.0706047
0.0706027
0.0706007
0.0705987
0.0705968
0.0705948
0.0705929
0.070591
0.0705891
0.0705872
0.0705853
0.0705835
0.0705817
0.0705799
0.0705781
0.0705764
0.0705747
0.070573
0.0705713
0.0705697
0.0705681
0.0705665
0.070565
0.0705635
0.070562
0.0705605
0.0705591
0.0705577
0.0705564
0.0705551
0.0705538
0.0705526
0.0705514
0.0705502
0.0705491
0.070548
0.070547
0.070546
0.070545
0.0705441
0.0705432
0.0705424
0.0705416
0.0705409
0.0705402
0.0705396
0.070539
0.0705385
0.070538
0.0705376
0.0705372
0.0705369
0.0705366
0.0705364
0.0705363
0.0705362
0.0705362
0.0705362
0.0705362
0.0705364
0.0705366
0.0705368
0.0705371
0.0705374
0.0705378
0.0705383
0.0705388
0.0705394
0.07054
0.0705407
0.0705415
0.0705423
0.0705431
0.0705441
0.070545
0.0705461
0.0705472
0.0705483
0.0705495
0.0705508
0.0705522
0.0705536
0.070555
0.0705565
0.0705581
0.0705597
0.0705614
0.0705631
0.0705649
0.0705667
0.0705686
0.0705706
0.0705726
0.0705747
0.0705769
0.0705791
0.0705814
0.0705837
0.0705861
0.0705885
0.0705911
0.0705936
0.0705963
0.070599
0.070602
0.0706052
0.0706088
0.0706128
0.0706164
0.0706185
0.0706193
0.0706197
0.0706199
0.0706201
0.0706198
0.0706187
0.0706178
0.0706179
0.0706183
0.0706204
0.0706263
0.070629
0.0706174
0.0706001
0.0705954
0.070604
0.070608
0.0705988
0.0706347
0.0706734
0.070569
0.0704787
0.0704075
0.0704567
0.0705771
0.0702133
0.0702354
0.070536
0.0699816
0.070161
0.069799
0.0702317
0.0699747
0.0700423
0.0705897
0.0690633
0.0703072
0.0704332
0.070063
0.070617
0.0706726
0.0706559
0.0706507
0.0706422
0.0706302
0.0706196
0.070613
0.0706065
0.0705973
0.0705879
0.0705803
0.0705731
0.0705649
0.0705566
0.0705487
0.0705409
0.0705329
0.070525
0.0705171
0.0705094
0.0705016
0.0704937
0.0704859
0.0704779
0.07047
0.0704619
0.0704538
0.0704457
0.0704375
0.0704293
0.070421
0.0704126
0.0704042
0.0703957
0.0703872
0.0703786
0.0703701
0.0703614
0.0703527
0.0703439
0.0703351
0.0703261
0.0703169
0.0703077
0.0702983
0.070289
0.0702797
0.0702704
0.0702611
0.0702518
0.0702426
0.0702334
0.0702243
0.0702152
0.0702062
0.0701974
0.0701886
0.0701799
0.0701714
0.0701629
0.0701548
0.0701468
0.070139
0.0701315
0.0701243
0.0701174
0.0701109
0.0701047
0.0700987
0.0700933
0.0700887
0.0700843
0.0700803
0.0700767
0.0700737
0.0700713
0.0700684
0.0700665
0.0700793
0.0700884
0.0700941
0.0700994
0.0701048
0.070111
0.070119
0.0701283
0.0701353
0.0701375
0.070153
0.0701673
0.0701785
0.0701935
0.0702359
0.0702528
0.0701817
0.0700543
0.0700771
0.0702669
0.0703478
0.0703078
0.07031
0.0703232
0.0703393
0.0703505
0.0703579
0.0703612
0.0703629
0.0703622
0.0703575
0.0703497
0.0703388
0.0703248
0.0703078
0.0702874
0.0702648
0.0702392
0.0702112
0.0701814
0.0701506
0.0701192
0.0700889
0.0700617
0.0700387
0.0700126
0.0699697
0.0698983
0.0697878
0.0696587
0.0695354
0.0694245
0.0693246
0.0692377
0.0691631
0.0691023
0.0690431
0.0689861
0.0689448
0.0689138
0.0688915
0.0688717
0.0688554
0.0688403
0.0688257
0.0688164
0.068812
0.0688141
0.0688184
0.0688268
0.0688578
0.0689174
0.0689063
0.0688419
0.0687921
0.0688215
0.0688666
0.0688973
0.0689147
0.068934
0.0689537
0.0689768
0.0689981
0.0690186
0.0690385
0.0690587
0.0690823
0.0691063
0.0691297
0.0691527
0.0691737
0.0691955
0.069217
0.0692402
0.0692601
0.0692807
0.0693005
0.0693192
0.069337
0.0693546
0.0693681
0.0693798
0.0693833
0.0693783
0.0693301
0.069213
0.0693123
0.0698182
0.070119
0.0700797
0.0698845
0.0696886
0.0695793
0.0695283
0.0695014
0.0694951
0.0694745
0.0694538
0.0694343
0.0694173
0.0693986
0.0693823
0.0693646
0.0693487
0.069336
0.0693189
0.069303
0.0692935
0.0692806
0.0692655
0.0692558
0.0692473
0.0692338
0.0692236
0.069215
0.0692059
0.0691958
0.0691836
0.0691778
0.069176
0.069162
0.0691593
0.0691577
0.0691677
0.0691664
0.0691846
0.0692089
0.0692663
0.06932
0.0693529
0.0694249
0.0695906
0.0697334
0.0697438
0.069658
0.0697852
0.0699983
0.069959
0.0698972
0.069922
0.0699393
0.0700202
0.0701971
0.0700707
0.069876
0.0702713
0.0701606
0.070205
0.0702156
0.0700977
0.07058
0.0702642
0.070379
0.0702993
0.070451
0.0705139
0.0705703
0.0704483
0.0703836
0.070595
0.0707593
0.0705516
0.0705412
0.0706087
0.0707305
0.0706567
0.0706001
0.0707424
0.0707629
0.0707292
0.0707847
0.0707036
0.0705839
0.0706469
0.0706594
0.0707015
0.070614
0.070646
0.0707421
0.0707074
0.0706712
0.0707539
0.0706922
0.0706345
0.0707773
0.0707797
0.0707956
0.0707197
0.0707195
0.0706773
0.0706743
0.0706581
0.0706288
0.0705886
0.0706312
0.0705792
0.0706015
0.0705605
0.0704627
0.0704725
0.0705436
0.0704131
0.0702162
0.0705197
0.0707871
0.0702556
0.0702444
0.0704057
0.0702221
0.0703288
0.0701159
0.0701353
0.0702357
0.0701644
0.0700569
0.0699673
0.070089
0.0700498
0.0699176
0.0698854
0.0699588
0.0699749
0.0698328
0.069827
0.0698728
0.0699014
0.0698178
0.0696323
0.0698841
0.0697821
0.0697918
0.0697939
0.0697456
0.0697337
0.0698723
0.0698063
0.0697232
0.0698186
0.0699422
0.0698487
0.0697304
0.0700243
0.0700245
0.0698873
0.0699214
0.0700811
0.0701565
0.0700961
0.0700826
0.0701191
0.0703709
0.0703243
0.0702589
0.0703362
0.0705435
0.0705593
0.0704102
0.0706058
0.0707982
0.070734
0.0705733
0.0707829
0.0707346
0.0706071
0.0706386
0.0705792
0.0705085
0.070418
0.0704348
0.0704597
0.0703456
0.0703304
0.0703338
0.070382
0.0703372
0.0703142
0.0702149
0.0703249
0.0705457
0.0702012
0.0701925
0.0706251
0.0700287
0.0704549
0.0703301
0.0704316
0.07048
0.0705038
0.0704291
0.0706215
0.0703398
0.0704579
0.0705617
0.0704533
0.0704328
0.0705568
0.0705389
0.0705282
0.0705651
0.0706203
0.0705719
0.0706666
0.0706276
0.0705936
0.0707158
0.0707889
0.0707913
0.0706586
0.0707692
0.0707405
0.070541
0.0707261
0.0705419
0.0704507
0.0706721
0.0707311
0.0705928
0.0703158
0.070554
0.0706691
0.0705865
0.0705376
0.0704824
0.0707526
0.0705905
0.0703486
0.0705549
0.0706065
0.0704054
0.0706262
0.0705397
0.0705109
0.0705364
0.0707569
0.0706081
0.0706119
0.070515
0.0706757
0.0707157
0.0707078
0.0707519
0.0704759
0.0707445
0.0706688
0.0705781
0.0704492
0.0703393
0.0707954
0.0703066
0.0702713
0.0703132
0.0704743
0.0701776
0.0700323
0.0700232
0.0702622
0.0702036
0.0698259
0.069898
0.0702679
0.0699867
0.0697438
0.0698581
0.0696695
0.0699429
0.0696967
0.0699262
0.0696653
0.0696359
0.0696629
0.0698464
0.0698014
0.069609
0.06956
0.069735
0.0695577
0.0697435
0.0696578
0.0697068
0.0695214
0.0695642
0.0695469
0.0698127
0.0695726
0.0697049
0.0695127
0.0695952
0.0695672
0.0693455
0.0697184
0.0695447
0.0692303
0.0694228
0.0695694
0.0695017
0.0694125
0.0693543
0.0693652
0.069255
0.0693025
0.0692175
0.0691695
0.0693154
0.0692964
0.0691322
0.0692638
0.069074
0.0692123
0.0691514
0.0691037
0.0691352
0.0692878
0.0692088
0.0691487
0.0692784
0.0692403
0.0693188
0.0692361
0.069461
0.0694357
0.0694689
0.0695641
0.0696603
0.0695642
0.0697997
0.0698301
0.0698575
0.0699401
0.0699605
0.0700613
0.0701607
0.0702431
0.0703297
0.0703892
0.0704647
0.0705461
0.0706036
0.0706704
0.0707129
0.0707604
0.0707887
0.0707994
0.0707971
0.070782
0.0707538
0.0707223
0.0706741
0.0705974
0.0705226
0.0704357
0.0703348
0.0702327
0.0701289
0.0700145
0.0698839
0.069765
0.0696578
0.0695323
0.0693928
0.0692808
0.069181
0.0690696
0.0689525
0.0688594
0.0687866
0.0687094
0.0686291
0.0685736
0.0685539
0.0685154
0.0685247
0.0686084
0.068679
0.0686988
0.0686394
0.0685802
0.0685659
0.0685413
0.0685033
0.0684496
0.0684685
0.0684465
0.0684105
0.0683861
0.0683995
0.0683858
0.0683713
0.0683447
0.0683544
0.0683625
0.06834
0.068344
0.0683215
0.0683708
0.0683437
0.0683602
0.0683396
0.0683311
0.0683815
0.0683851
0.0683873
0.0683693
0.0684038
0.0684252
0.0684219
0.0684378
0.0684504
0.0684706
0.0684607
0.0685082
0.0684794
0.0685009
0.0685036
0.068503
0.0685209
0.0685226
0.068493
0.0684786
0.0684882
0.0684667
0.0684324
0.0684403
0.0684069
0.0683975
0.0683708
0.0683756
0.068359
0.0683158
0.0683336
0.0683102
0.068263
0.068259
0.0682785
0.0682543
0.0682372
0.0682303
0.0682135
0.0682252
0.068223
0.0682096
0.0682046
0.0682275
0.0682476
0.0682565
0.0682173
0.0682118
0.0682515
0.0682424
0.0683174
0.068278
0.0682815
0.0682761
0.0684647
0.0682486
0.0685372
0.068351
0.0682812
0.0683439
0.0685762
0.0688286
0.069212
0.0696783
0.0701487
0.069267
0.0687559
0.068518
0.0683001
0.0681493
0.06791
0.0677434
0.0676127
0.067478
0.0673364
0.0671921
0.0670603
0.0669476
0.0668312
0.0667231
0.0666059
0.0664862
0.0663951
0.0663031
0.0662031
0.0660557
0.0660506
0.0658815
0.0657962
0.0657521
0.0656608
0.0655119
0.0654469
0.0654296
0.0653263
0.0652197
0.0651808
0.0650628
0.0650206
0.0649484
0.0648728
0.0647379
0.0648838
0.0651239
0.0649855
0.0647767
0.0647308
0.0647506
0.0646949
0.0647219
0.0647532
0.0647493
0.0647635
0.0648366
0.0649125
0.0650493
0.0652753
0.0654625
0.0658182
0.0663056
0.066964
0.0676417
0.0690048
0.0702472
0.0700646
0.0687097
0.0680411
0.0675163
0.0670104
0.0664784
0.0665202
0.0660553
0.0656163
0.0656826
0.0653719
0.0654018
0.0651184
0.0650216
0.0649519
0.064931
0.0647854
0.064751
0.0648749
0.0647688
0.0647537
0.0646822
0.0646916
0.0647465
0.0647897
0.0649525
0.0648385
0.0647896
0.0648918
0.0650456
0.0650614
0.0651497
0.0652112
0.0653431
0.0653633
0.0654773
0.0655952
0.0657143
0.0658216
0.0659761
0.0660649
0.0662318
0.0663856
0.0665764
0.0667181
0.0669589
0.0670543
0.0672948
0.067484
0.0676404
0.0677841
0.0679585
0.0681707
0.0683246
0.0685388
0.068684
0.068836
0.0690849
0.0692298
0.0693469
0.0695758
0.0696913
0.0698381
0.0699749
0.0701057
0.0702207
0.0703301
0.0704195
0.0705051
0.0705712
0.0706314
0.0706837
0.0707289
0.0707592
0.0707851
0.0707969
0.0708
0.070797
0.070786
0.070767
0.0707349
0.0706984
0.0706675
0.070631
0.07059
0.0705473
0.0705044
0.0704613
0.070417
0.0703759
0.0703351
0.0702943
0.0702577
0.0702227
0.0701897
0.0701593
0.070137
0.0701138
0.0700976
0.0700827
0.0700567
0.0700335
0.0700088
0.0699929
0.0699689
0.0699507
0.0699438
0.0699398
0.0699242
0.0699096
0.0699226
0.0699326
0.0699016
0.0699104
0.0699644
0.069953
0.0699204
0.0699717
0.070043
0.0700062
0.0699972
0.0700901
0.0701341
0.0701031
0.0701373
0.0702235
0.070247
0.0702534
0.0703102
0.070371
0.0703893
0.0704219
0.070499
0.0705378
0.0705436
0.0706014
0.0706826
0.0707008
0.0707301
0.0707859
0.0707257
0.0706546
0.0707749
0.0707808
0.0706111
0.0706595
0.0705494
0.0705694
0.0705906
0.0705003
0.0704259
0.0704658
0.0704946
0.0704179
0.0703628
0.070414
0.0704334
0.0703705
0.0703427
0.0703914
0.0703981
0.0703566
0.0703583
0.0703884
0.0703851
0.0703761
0.0703892
0.070404
0.070417
0.0704182
0.0704241
0.0704479
0.0704709
0.0704764
0.0704723
0.070502
0.0705433
0.0705454
0.0705312
0.0705718
0.0706258
0.0706156
0.0705948
0.0706518
0.0707096
0.0706903
0.0706759
0.070736
0.0707934
0.0707783
0.0706894
0.07077
0.0707732
0.0707786
0.0707828
0.0707119
0.0706277
0.0706311
0.0706569
0.0705948
0.0705061
0.070502
0.0705264
0.0704798
0.0703964
0.0703784
0.0704054
0.0703576
0.0702621
0.0702429
0.0702695
0.0702253
0.0701307
0.0700956
0.0701184
0.0700934
0.069992
0.0699365
0.0699729
0.0699567
0.0698483
0.0698019
0.0698306
0.0698085
0.0697344
0.0696829
0.0696893
0.0697056
0.0696375
0.0695728
0.0695897
0.0696118
0.069587
0.0695127
0.0695236
0.0695729
0.0695322
0.0695365
0.069475
0.0695327
0.0696408
0.0695708
0.0694573
0.0695619
0.0698302
0.0696563
0.0694378
0.0697171
0.070063
0.0697667
0.0695099
0.06988
0.0701938
0.069856
0.0696831
0.0700986
0.0703639
0.0700995
0.0700445
0.0703792
0.0705111
0.0703856
0.0704417
0.0706503
0.0706729
0.0706432
0.070776
0.0706984
0.070748
0.0707081
0.0706072
0.0705759
0.0706032
0.0704587
0.0703128
0.0703773
0.0703962
0.0702781
0.0702117
0.070263
0.0702649
0.0701737
0.0701212
0.070163
0.0701871
0.0701052
0.0700486
0.0700725
0.0700957
0.0700603
0.0700189
0.0700151
0.0700653
0.0700766
0.0700293
0.0700062
0.0700309
0.0700416
0.0700388
0.0700135
0.0699876
0.070008
0.0700273
0.0699842
0.0699624
0.0700224
0.0700044
0.0699455
0.0700149
0.0700321
0.0699426
0.0700073
0.0700749
0.0699689
0.0700094
0.070116
0.0700298
0.0700461
0.0701502
0.0700913
0.0701391
0.0701758
0.0701806
0.0702505
0.0701922
0.0702979
0.0703297
0.0703228
0.0703665
0.0704217
0.0704604
0.070446
0.0705182
0.0705839
0.0705876
0.0706014
0.0706891
0.0707474
0.0707345
0.0707742
0.0707071
0.0707023
0.0707837
0.0707729
0.0707305
0.0707011
0.0706982
0.07062
0.070515
0.070499
0.0705111
0.0704717
0.0703927
0.0703429
0.070377
0.0703586
0.0702731
0.070242
0.0702595
0.0702331
0.0701812
0.0701597
0.0701467
0.0701188
0.0700972
0.0700825
0.0700501
0.0700136
0.0700305
0.070019
0.0699577
0.0699346
0.0699665
0.0699528
0.0698968
0.0698777
0.0699407
0.0699119
0.0698416
0.0698526
0.0699074
0.0699185
0.0698642
0.0698028
0.0698501
0.0698779
0.0698319
0.069816
0.0698272
0.0698258
0.0698711
0.0698689
0.0697683
0.0698026
0.0698961
0.0697117
0.0697231
0.0699371
0.0697503
0.0697616
0.0700355
0.0698021
0.0698948
0.0701125
0.0699362
0.0700724
0.069997
0.0702397
0.0703208
0.0700601
0.0703022
0.07042
0.0704739
0.0703243
0.0704753
0.0706568
0.0706569
0.0705121
0.0705984
0.0707218
0.0706667
0.0707978
0.0707366
0.0705333
0.070436
0.0705104
0.0705217
0.0703458
0.0701959
0.0702629
0.070336
0.0702468
0.0701069
0.0700782
0.0701869
0.0702061
0.0700598
0.0699929
0.0701019
0.0701809
0.0700485
0.0699674
0.0701018
0.0701519
0.0700561
0.0700315
0.0701383
0.0701755
0.0700767
0.0701147
0.070215
0.0701959
0.0701927
0.0702088
0.0702568
0.0703291
0.0703369
0.0702603
0.0702892
0.070478
0.0705258
0.0703476
0.0703486
0.0706616
0.0707432
0.0703855
0.0703131
0.0707688
0.0705579
0.0704719
0.0702695
0.0706402
0.0703947
0.0704876
0.0703732
0.0705022
0.0704976
0.0706046
0.0707866
0.0705945
0.0707203
0.0706365
0.070753
0.0707092
0.070441
0.0705788
0.0707607
0.0706059
0.0706268
0.0705068
0.0706601
0.0706195
0.0706193
0.0705906
0.0705979
0.0705697
0.0706146
0.0706161
0.0705819
0.0705344
0.0706448
0.0706429
0.0705816
0.0705616
0.0706302
0.0706532
0.0705339
0.0705951
0.070747
0.0706705
0.0705772
0.0706734
0.0707819
0.0707474
0.0706826
0.0707422
0.0707615
0.070777
0.0707154
0.0707832
0.0707944
0.0707898
0.070725
0.070799
0.0707739
0.0707895
0.0707318
0.070782
0.0707821
0.0707383
0.0707531
0.0707843
0.0707864
0.0706766
0.0707672
0.0707989
0.0707302
0.0706924
0.0706531
0.0707236
0.0707989
0.0707516
0.0705327
0.070588
0.0706978
0.0707884
0.0705264
0.0707622
0.070545
0.0706251
0.0703846
0.0706401
0.0707068
0.0703586
0.0707266
0.0704201
0.0707244
0.0707269
0.0702374
0.0706422
0.070578
0.0706318
0.0703818
0.0704213
0.0705345
0.0704884
0.0703003
0.0703186
0.0703669
0.070346
0.070257
0.070202
0.0702005
0.0701838
0.0701931
0.070101
0.0700179
0.0701065
0.0700262
0.0700302
0.069886
0.0699919
0.0700629
0.0698255
0.0698919
0.0699301
0.0698603
0.0699096
0.069665
0.0698097
0.069828
0.0698506
0.0697418
0.0697445
0.0698398
0.0698682
0.069733
0.06975
0.0699619
0.0699055
0.0697117
0.0698267
0.0699869
0.0699981
0.0698327
0.0699608
0.0699171
0.0702293
0.0699312
0.0699955
0.0702017
0.0702691
0.0701263
0.0701686
0.0702708
0.0704409
0.0702582
0.0702702
0.0704264
0.0706128
0.0702935
0.070593
0.0705366
0.0707116
0.0706202
0.0706281
0.0706944
0.0707802
0.0707885
0.070794
0.0707363
0.0707286
0.0705865
0.0707885
0.0706488
0.0704706
0.0705541
0.0706501
0.0706236
0.0705429
0.0706102
0.0706713
0.0705315
0.070637
0.0706934
0.0707656
0.0706966
0.0705587
0.0705421
0.0706773
0.070721
0.0705483
0.07044
0.0706606
0.0707296
0.0707672
0.0704111
0.0703767
0.0706578
0.0706737
0.0705853
0.070528
0.0706925
0.0707188
0.0706638
0.0705951
0.070696
0.0707501
0.0707261
0.0706233
0.0707776
0.0707055
0.0706678
0.0706021
0.0707632
0.0707183
0.0707311
0.070774
0.070782
0.0706466
0.0707464
0.070781
0.0707117
0.0705343
0.0706786
0.070701
0.0707318
0.0706493
0.0707118
0.0706563
0.0706873
0.070662
0.0707428
0.0705526
0.0707475
0.0705646
0.0707193
0.0706395
0.0707208
0.0705696
0.0705907
0.070595
0.0707518
0.0706294
0.0706654
0.0705178
0.0706957
0.0706481
0.0706887
0.0704239
0.0704891
0.0707395
0.07059
0.0705063
0.0706417
0.0705509
0.070744
0.0706489
0.0707295
0.0705133
0.0707332
0.0707877
0.0706171
0.0704165
0.0704293
0.0704503
0.0706873
0.0704785
0.0702522
0.070551
0.0704961
0.0700588
0.0702334
0.0704228
0.0700411
0.0701764
0.0705243
0.0701393
0.0702406
0.0704366
0.0703435
0.0701573
0.0704041
0.0702157
0.0700904
0.0707131
0.0706827
0.070065
0.0704236
0.0706387
0.070549
0.0704879
0.0705215
0.0707436
0.0707321
0.0707063
0.0705881
0.0703993
0.0705419
0.0707089
0.070559
0.0705117
0.0707235
0.0706043
0.0704079
0.0705601
0.0706008
0.0704754
0.0701041
0.0705336
0.0706003
0.0701951
0.0703569
0.0702684
0.0700416
0.0702434
0.0701863
0.0701494
0.069536
0.0698238
0.0703806
0.06968
0.0696778
0.0697851
0.0698131
0.0695768
0.0695646
0.0695012
0.0695536
0.0693997
0.0693839
0.0693516
0.0693031
0.0692353
0.069366
0.0690861
0.0691737
0.0691125
0.0692582
0.0691386
0.0690037
0.0690373
0.0689689
0.0691274
0.0690552
0.0691051
0.068948
0.0688653
0.0691741
0.0690024
0.0690256
0.069004
0.0691124
0.0690493
0.0690603
0.0690004
0.0692108
0.0692113
0.0691733
0.0691464
0.0692235
0.0693078
0.0691931
0.0692772
0.0693085
0.0692721
0.0692768
0.0692894
0.0694385
0.0693298
0.069466
0.0693266
0.0695385
0.0695205
0.0694781
0.0695468
0.0695698
0.0696297
0.0695504
0.0696969
0.0696921
0.0698469
0.0697353
0.0698858
0.0698674
0.0699776
0.0699147
0.07007
0.0700615
0.0701281
0.0701518
0.0702059
0.0702144
0.070268
0.0703508
0.070427
0.0704561
0.0704786
0.0705097
0.0705509
0.0705988
0.0706327
0.0706795
0.0707016
0.0707268
0.0707548
0.0707781
0.070791
0.0707981
0.0708
0.070797
0.0707883
0.070775
0.070762
0.0707378
0.0707189
0.0706793
0.0706357
0.0705889
0.0705363
0.0704833
0.0704217
0.0703513
0.0702806
0.0702052
0.0701259
0.0700321
0.0699402
0.0698528
0.0697558
0.069658
0.0695556
0.069454
0.0693565
0.0692581
0.0691581
0.0690421
0.0689388
0.068845
0.0687518
0.06864
0.0685425
0.0684375
0.0683613
0.0682428
0.0681303
0.0680224
0.0679425
0.0678618
0.0677752
0.0677227
0.0676551
0.0675852
0.0675153
0.0674735
0.0674128
0.0673588
0.0673025
0.06726
0.0672321
0.0671768
0.0671416
0.067111
0.0670755
0.067058
0.0670204
0.0670145
0.0669858
0.0669622
0.0669623
0.0669471
0.0669394
0.0669348
0.066924
0.0669422
0.0669268
0.0669377
0.066949
0.0669585
0.0669801
0.0669818
0.0670099
0.0670241
0.0670567
0.0670766
0.06713
0.0671386
0.0672028
0.0672431
0.0673036
0.0673789
0.0674787
0.0676622
0.0678542
0.0679919
0.0679876
0.0679876
0.0679535
0.0679669
0.0679865
0.0679788
0.0679566
0.0679701
0.067976
0.067961
0.0679771
0.0679767
0.0679466
0.0679509
0.0679557
0.0679414
0.0679416
0.0679511
0.0679398
0.0679396
0.0680269
0.0678865
0.0681361
0.0674773
0.0688015
0.066736
0.0701951
0.0653096
0.0665822
0.0639711
0.0641281
0.0630096
0.0632312
0.0623234
0.0622464
0.0610778
0.0606949
0.0612253
0.0603192
0.0604603
0.0614413
0.0612346
0.061895
0.0648398
0.0685199
0.0698033
0.0687818
0.0694556
0.0706517
0.0706541
0.0687831
0.068008
0.0677429
0.0678175
0.0671712
0.0670005
0.0668301
0.0672669
0.0671437
0.0669902
0.0668049
0.0667238
0.0665304
0.0665518
0.0663576
0.0663415
0.0661829
0.0661335
0.066057
0.065953
0.0658689
0.065826
0.0657215
0.065651
0.0656176
0.0654848
0.0654399
0.0654114
0.0653434
0.0652348
0.0651579
0.0651427
0.0650695
0.0653262
0.0656463
0.0654308
0.0652379
0.0652149
0.0653211
0.0653423
0.0653715
0.0654534
0.0655341
0.0656384
0.0658558
0.065959
0.0662849
0.0666079
0.0671789
0.0679115
0.0683366
0.0695536
0.0707524
0.0697124
0.0691679
0.0682207
0.067616
0.0675264
0.0665702
0.0664012
0.0660715
0.0658365
0.0655837
0.0653997
0.0652152
0.0649895
0.0648334
0.06479
0.0646488
0.064571
0.0644239
0.0644615
0.0643249
0.0643007
0.0642557
0.0642335
0.0642338
0.0642863
0.0642124
0.064224
0.0642677
0.0643174
0.064426
0.0644714
0.0645276
0.0646505
0.064841
0.0647777
0.0649717
0.0651176
0.0652854
0.0654309
0.0655179
0.0657021
0.0658465
0.0661079
0.0662695
0.0665056
0.0667753
0.0668349
0.0670776
0.0672764
0.067484
0.0676697
0.0677656
0.0680422
0.0681132
0.0684279
0.0684668
0.068691
0.0689274
0.068972
0.0692165
0.0692718
0.0695012
0.0695889
0.0697182
0.0698536
0.0699644
0.0700886
0.0702
0.0702222
0.0703388
0.070407
0.0704774
0.0705425
0.0705763
0.0706346
0.0706623
0.070691
0.0707246
0.0707495
0.0707699
0.070783
0.0707936
0.0707981
0.0708
0.0707991
0.0707957
0.0707882
0.0707789
0.0707657
0.0707515
0.0707338
0.0707168
0.070698
0.0706768
0.0706542
0.0706312
0.0706067
0.070579
0.0705552
0.0705341
0.0705021
0.0704656
0.0704425
0.0704092
0.0703773
0.0703418
0.0703079
0.0702745
0.0702465
0.0702151
0.0701843
0.0701576
0.0701398
0.0701114
0.0700654
0.0700319
0.0700082
0.0699636
0.0699184
0.0698871
0.0698488
0.0698113
0.0697679
0.069738
0.0697147
0.0696583
0.0696186
0.0696147
0.0695775
0.0695376
0.0695247
0.0694917
0.0694606
0.0694699
0.0694502
0.0693946
0.0694122
0.0694368
0.069384
0.06936
0.0694114
0.0694167
0.0693615
0.0693928
0.0694268
0.0693795
0.0694362
0.0694799
0.0693773
0.0694485
0.0696208
0.0694754
0.0693887
0.0696408
0.0696915
0.0695259
0.069567
0.0697329
0.0697559
0.0696918
0.0697455
0.0698251
0.0698719
0.0699093
0.0698886
0.0699366
0.0700663
0.0700912
0.0700987
0.0701792
0.0702823
0.0703989
0.0704656
0.0704377
0.0705198
0.070646
0.070712
0.0707722
0.0706648
0.070563
0.0704779
0.0704418
0.0703391
0.0702952
0.0704363
0.0704618
0.0702642
0.0702766
0.0705052
0.070461
0.0702817
0.0704016
0.0705808
0.0704715
0.0703901
0.0705284
0.0705495
0.0704937
0.0706067
0.0705844
0.0705229
0.070725
0.0706994
0.0705739
0.0706798
0.0706848
0.0707038
0.0707179
0.0707126
0.0707811
0.0707535
0.0706862
0.0706934
0.0706952
0.0707064
0.0706681
0.0706299
0.0707534
0.0707617
0.0706051
0.0706422
0.0706986
0.0707908
0.0706015
0.0707575
0.0706653
0.0707677
0.0706998
0.0707265
0.0707879
0.0707509
0.0706811
0.0706693
0.070706
0.0707542
0.0707513
0.0707244
0.0706699
0.0707168
0.0706793
0.0707814
0.0704988
0.0707883
0.0705479
0.0706175
0.0706103
0.0705581
0.0707565
0.070509
0.070718
0.0706787
0.0706626
0.0705576
0.070718
0.0707204
0.0705676
0.0706248
0.0707035
0.0706065
0.0705722
0.0707824
0.0707846
0.0706101
0.0705235
0.0706283
0.0706964
0.070555
0.0704002
0.0705021
0.0706466
0.0704835
0.0703367
0.0704979
0.0705706
0.0703849
0.0703422
0.0705189
0.0705196
0.0703411
0.0703621
0.0705603
0.0704868
0.0703156
0.0704272
0.0706144
0.0704904
0.0703452
0.0705308
0.0706762
0.0704979
0.0704562
0.0706684
0.0707207
0.0706034
0.0706321
0.0707727
0.0707913
0.070727
0.070739
0.070749
0.0707291
0.0707644
0.0707678
0.0706562
0.0707002
0.0707295
0.0705738
0.0705579
0.0706323
0.0704716
0.0704544
0.0706057
0.0705673
0.0703472
0.0703561
0.0704585
0.0705601
0.0702985
0.0701199
0.0705674
0.070501
0.070138
0.0702452
0.0703751
0.0702259
0.0701754
0.0700587
0.0701328
0.070296
0.0700732
0.0697965
0.0699933
0.0702303
0.0701587
0.0697931
0.0697777
0.0699904
0.0700236
0.0698801
0.069746
0.0698256
0.0699139
0.0699485
0.0698109
0.0696344
0.069783
0.0701004
0.0698286
0.0694616
0.0699975
0.0702182
0.0694966
0.069651
0.0702948
0.0700793
0.069761
0.0698813
0.0701442
0.0703583
0.0700163
0.0698135
0.0704092
0.0707014
0.0702319
0.0700599
0.070526
0.0707569
0.0705274
0.0706313
0.0705668
0.0704455
0.0704907
0.0704477
0.0703894
0.0704019
0.0707765
0.070653
0.0704659
0.0705084
0.0705147
0.0703359
0.0702442
0.0702008
0.0701891
0.0702098
0.0701232
0.0701113
0.0701463
0.0699382
0.0698507
0.0699307
0.0700266
0.0699584
0.0698585
0.069727
0.0696765
0.0697116
0.0697749
0.0696232
0.069401
0.0696533
0.0697299
0.0693316
0.069498
0.0696729
0.0692813
0.0695485
0.0695625
0.0693492
0.0692962
0.0695353
0.0696189
0.069372
0.0694881
0.0692481