/*--------------------------------*- C++ -*----------------------------------*\
| =========                 |                                                 |
| \\      /  F ield         | OpenFOAM: The Open Source CFD Toolbox           |
|  \\    /   O peration     | Version:  v1812                                 |
|   \\  /    A nd           | Web:      www.OpenFOAM.com                      |
|    \\/     M anipulation  |                                                 |
\*---------------------------------------------------------------------------*/
FoamFile
{
    version     2.0;
    format      ascii;
    class       volScalarField;
    location    "300";
    object      fBeta;
}
// * * * * * * * * * * * * * * * * * * * * * * * * * * * * * * * * * * * * * //

dimensions      [0 0 0 0 0 0 0];


internalField   nonuniform List<scalar> 
366376
(
0.908275
0.917925
0.930422
0.942799
0.954901
0.965903
0.975223
0.982602
0.988086
0.99193
0.994491
0.996129
0.997157
0.997809
0.99824
0.998544
0.998766
0.998932
0.999056
0.999148
0.999215
0.999264
0.9993
0.999328
0.999351
0.999374
0.999404
0.999444
0.999488
0.999532
0.999576
0.999616
0.999653
0.999687
0.999717
0.999744
0.999768
0.999789
0.999807
0.999823
0.999838
0.99985
0.999861
0.999871
0.999879
0.999887
0.999893
0.9999
0.999905
0.99991
0.999915
0.999919
0.999923
0.999927
0.99993
0.999934
0.999937
0.99994
0.999943
0.999946
0.999949
0.999952
0.999955
0.999958
0.99996
0.999963
0.999966
0.999969
0.999972
0.999975
0.999978
0.999981
0.999984
0.999988
0.999991
0.999995
0.999998
0.999998
0.999994
0.99999
0.999985
0.999981
0.999976
0.999971
0.999966
0.999961
0.999955
0.99995
0.999944
0.999938
0.999931
0.999924
0.999917
0.99991
0.999903
0.999895
0.999887
0.999878
0.99987
0.999861
0.999851
0.999842
0.999832
0.999822
0.999812
0.999801
0.99979
0.999779
0.999767
0.999756
0.999744
0.999731
0.999719
0.999706
0.999694
0.999681
0.999668
0.999655
0.999643
0.999628
0.999608
0.999591
0.999576
0.99956
0.999544
0.999529
0.999513
0.999497
0.999481
0.999465
0.999449
0.999433
0.999418
0.999402
0.999387
0.999372
0.999358
0.999344
0.99933
0.999316
0.999303
0.99929
0.999278
0.999267
0.999256
0.999245
0.999236
0.999227
0.999219
0.999211
0.999205
0.9992
0.999197
0.999195
0.999196
0.999202
0.999212
0.99923
0.999256
0.999289
0.999328
0.999366
0.9994
0.999428
0.999452
0.999471
0.999488
0.999502
0.999515
0.999526
0.999537
0.999546
0.999555
0.999564
0.999572
0.999581
0.999589
0.999598
0.999607
0.999617
0.999626
0.999637
0.999648
0.999659
0.999672
0.999684
0.999697
0.99971
0.999723
0.999737
0.99975
0.999763
0.999776
0.999788
0.999801
0.999813
0.999824
0.999835
0.999846
0.999857
0.999867
0.999876
0.999885
0.999894
0.999902
0.99991
0.999918
0.999925
0.999932
0.999938
0.999943
0.999948
0.999949
0.999943
0.999923
0.999941
0.999747
0.999954
0.999994
0.999884
0.999933
0.999881
0.999859
0.999826
0.999793
0.999764
0.999741
0.999724
0.999721
0.999758
0.999887
0.999849
0.999498
0.999254
0.999314
0.999553
0.999723
0.999817
0.99987
0.9999
0.999913
0.999916
0.999911
0.999899
0.999883
0.999865
0.999853
0.999837
0.999828
0.99982
0.999811
0.999797
0.999771
0.999788
0.999812
0.999802
0.999807
0.999812
0.999818
0.999825
0.999833
0.999842
0.999852
0.999863
0.999876
0.999889
0.999904
0.99992
0.999936
0.999954
0.999973
0.999993
0.999986
0.999963
0.99994
0.999916
0.99989
0.999864
0.999836
0.999807
0.999778
0.999747
0.999715
0.999682
0.999648
0.999612
0.999576
0.999539
0.999501
0.999461
0.999421
0.999379
0.999337
0.999294
0.999249
0.999204
0.999158
0.99911
0.999062
0.999013
0.998963
0.998912
0.99886
0.998807
0.998754
0.998699
0.998644
0.998581
0.998513
0.99843
0.998329
0.998247
0.99818
0.998111
0.998041
0.997969
0.997896
0.997822
0.997746
0.997669
0.997591
0.997511
0.997429
0.997346
0.997262
0.997176
0.997088
0.996998
0.996906
0.996813
0.996717
0.99662
0.996523
0.996429
0.996343
0.99627
0.996215
0.99618
0.99616
0.996148
0.996137
0.996122
0.996099
0.996058
0.995984
0.995873
0.995722
0.995517
0.995352
0.995497
0.995789
0.994994
0.989416
0.966905
0.943059
0.952152
0.996041
0.976422
0.984239
0.993073
0.996626
0.999347
0.998568
0.997078
0.995978
0.99513
0.994447
0.993873
0.993376
0.992932
0.992528
0.992153
0.991799
0.99146
0.991133
0.990814
0.990501
0.990193
0.989886
0.989581
0.989276
0.988971
0.988666
0.988358
0.98805
0.987739
0.987427
0.987113
0.986798
0.986481
0.986162
0.985842
0.985522
0.985201
0.984881
0.984562
0.984244
0.983928
0.983615
0.983313
0.982933
0.982522
0.982192
0.981893
0.981622
0.981379
0.981149
0.980935
0.980739
0.980562
0.980407
0.980275
0.980168
0.980088
0.980037
0.980016
0.980027
0.980072
0.980151
0.980267
0.980419
0.980609
0.980836
0.9811
0.981402
0.98174
0.982113
0.982519
0.982956
0.983422
0.983913
0.984425
0.984954
0.985492
0.986033
0.986568
0.987086
0.987573
0.988012
0.988383
0.988684
0.989038
0.989285
0.989496
0.989641
0.989529
0.989036
0.988006
0.986253
0.983603
0.979961
0.975419
0.970371
0.965588
0.962186
0.96132
0.96324
0.968781
0.977908
0.986309
0.992613
0.997108
0.999795
0.997838
0.996717
0.99616
0.995971
0.99601
0.996178
0.99641
0.996667
0.996928
0.997178
0.997409
0.99762
0.99781
0.997988
0.998157
0.998315
0.998464
0.998606
0.998743
0.998874
0.999001
0.999123
0.999243
0.999368
0.999453
0.999625
0.999729
0.999683
0.999974
0.999955
0.999652
0.999791
0.999686
0.999656
0.999633
0.999617
0.999607
0.999601
0.999598
0.999597
0.999596
0.999596
0.999597
0.999598
0.999602
0.999607
0.999612
0.999617
0.999624
0.99963
0.999638
0.999646
0.999654
0.999664
0.999674
0.999685
0.999698
0.999711
0.999725
0.99974
0.999755
0.999772
0.999789
0.999806
0.999825
0.999845
0.999865
0.999884
0.999904
0.999925
0.999946
0.999967
0.999989
0.999989
0.999966
0.999943
0.999919
0.999895
0.99987
0.999844
0.999818
0.999791
0.999763
0.999735
0.999707
0.999678
0.99965
0.999622
0.999597
0.999579
0.999534
0.999787
0.998462
0.987077
0.957952
0.954426
0.986741
0.997209
0.99905
0.999149
0.999145
0.999115
0.999081
0.999045
0.999008
0.99897
0.998931
0.998892
0.998852
0.998812
0.998771
0.99873
0.998689
0.998647
0.998605
0.998563
0.99852
0.998477
0.998432
0.998387
0.998339
0.99829
0.998237
0.998179
0.998116
0.998054
0.997969
0.99785
0.997768
0.997726
0.997675
0.997628
0.997589
0.997565
0.997538
0.997507
0.997477
0.997447
0.997417
0.997388
0.997358
0.997329
0.9973
0.997271
0.997242
0.997214
0.997185
0.997157
0.997129
0.997102
0.997074
0.997047
0.997021
0.996994
0.996968
0.996942
0.996917
0.996891
0.996866
0.996842
0.996818
0.996794
0.99677
0.996747
0.996725
0.996702
0.996681
0.996659
0.996638
0.996618
0.996598
0.996578
0.996559
0.996541
0.996523
0.996505
0.996488
0.996472
0.996456
0.996441
0.996426
0.996412
0.996398
0.996385
0.996373
0.996361
0.99635
0.99634
0.99633
0.996321
0.996313
0.996306
0.996299
0.996293
0.996288
0.996284
0.99628
0.996277
0.996275
0.996274
0.996273
0.996274
0.996275
0.996276
0.996279
0.996282
0.996286
0.996291
0.996297
0.996304
0.996311
0.996319
0.996328
0.996338
0.996348
0.99636
0.996372
0.996385
0.996399
0.996413
0.996429
0.996445
0.996462
0.996481
0.9965
0.996519
0.99654
0.996561
0.996583
0.996606
0.996629
0.996654
0.996679
0.996705
0.996732
0.99676
0.996788
0.996818
0.996848
0.99688
0.996912
0.996945
0.996979
0.997013
0.997049
0.997085
0.997123
0.997162
0.997204
0.997249
0.997299
0.997355
0.997407
0.997436
0.997448
0.997453
0.997456
0.99746
0.997455
0.997439
0.997427
0.997428
0.997434
0.997463
0.997546
0.997584
0.997421
0.997177
0.99711
0.997231
0.997288
0.997158
0.997666
0.998211
0.996737
0.995462
0.994456
0.995151
0.996851
0.991714
0.992025
0.996271
0.988441
0.990975
0.985862
0.991973
0.988344
0.989298
0.997029
0.97547
0.99304
0.994819
0.989591
0.997415
0.998201
0.997965
0.997892
0.997772
0.997602
0.997452
0.997359
0.997267
0.997137
0.997004
0.996897
0.996795
0.99668
0.996562
0.996451
0.996341
0.996228
0.996115
0.996004
0.995895
0.995785
0.995674
0.995563
0.995451
0.995339
0.995225
0.995111
0.994996
0.994881
0.994764
0.994647
0.994529
0.99441
0.99429
0.994169
0.994048
0.993927
0.993806
0.993683
0.993559
0.993433
0.993306
0.993177
0.993046
0.992914
0.992782
0.99265
0.992519
0.992388
0.992257
0.992127
0.991998
0.991869
0.99174
0.991614
0.991488
0.991364
0.991242
0.991121
0.991002
0.990887
0.990774
0.990664
0.990558
0.990456
0.990359
0.990267
0.990179
0.990094
0.990019
0.989953
0.989891
0.989835
0.989784
0.989741
0.989708
0.989667
0.989641
0.989821
0.989949
0.99003
0.990104
0.990181
0.990269
0.990381
0.990512
0.990612
0.990642
0.990862
0.991063
0.991222
0.991434
0.992033
0.992271
0.991266
0.989468
0.98979
0.99247
0.993614
0.993048
0.993079
0.993266
0.993492
0.993651
0.993755
0.993802
0.993826
0.993816
0.993749
0.993639
0.993485
0.993289
0.993049
0.99276
0.99244
0.992079
0.991684
0.991262
0.990827
0.990385
0.989956
0.989571
0.989247
0.988879
0.988273
0.987265
0.985703
0.98388
0.982139
0.980572
0.979161
0.977933
0.97688
0.976021
0.975185
0.97438
0.973796
0.973359
0.973044
0.972764
0.972533
0.97232
0.972114
0.971984
0.971921
0.97195
0.972012
0.972129
0.972567
0.973409
0.973253
0.972343
0.97164
0.972055
0.972692
0.973125
0.973372
0.973644
0.973922
0.974249
0.974549
0.974839
0.97512
0.975405
0.975739
0.976078
0.976409
0.976733
0.97703
0.977338
0.977641
0.977969
0.97825
0.978541
0.978821
0.979085
0.979336
0.979585
0.979775
0.979941
0.97999
0.97992
0.979239
0.977584
0.978987
0.986133
0.990382
0.989826
0.987069
0.984302
0.982758
0.982038
0.981659
0.981569
0.981278
0.980987
0.980711
0.98047
0.980207
0.979976
0.979726
0.979501
0.979322
0.97908
0.978855
0.978721
0.978539
0.978327
0.978189
0.978069
0.977879
0.977734
0.977613
0.977485
0.977342
0.97717
0.977087
0.977062
0.976864
0.976826
0.976804
0.976945
0.976926
0.977184
0.977527
0.978337
0.979096
0.979561
0.980578
0.982918
0.984935
0.985082
0.98387
0.985667
0.988676
0.988121
0.987249
0.987599
0.987843
0.988986
0.991484
0.989699
0.98695
0.992533
0.990968
0.991596
0.991745
0.990081
0.996893
0.992433
0.994054
0.992928
0.99507
0.995959
0.996756
0.995032
0.994119
0.997104
0.999425
0.996492
0.996345
0.997298
0.999018
0.997976
0.997177
0.999186
0.999476
0.998999
0.999784
0.998638
0.996947
0.997837
0.998015
0.998609
0.997373
0.997825
0.999182
0.998692
0.998181
0.999349
0.998478
0.997662
0.99968
0.999714
0.999938
0.998865
0.998863
0.998267
0.998224
0.997995
0.997581
0.997014
0.997615
0.996881
0.997197
0.996617
0.995236
0.995374
0.996379
0.994536
0.991755
0.996042
0.999818
0.992311
0.992152
0.994431
0.991838
0.993345
0.990337
0.990612
0.992029
0.991023
0.989504
0.988238
0.989958
0.989403
0.987537
0.987081
0.988119
0.988347
0.986338
0.986257
0.986904
0.987308
0.986128
0.983508
0.987063
0.985624
0.98576
0.98579
0.985107
0.98494
0.986897
0.985965
0.98479
0.986138
0.987884
0.986563
0.984892
0.989043
0.989046
0.987108
0.987591
0.989846
0.990911
0.990059
0.989867
0.990383
0.99394
0.993281
0.992357
0.99345
0.996377
0.996601
0.994494
0.997257
0.999974
0.999068
0.996798
0.999758
0.999076
0.997275
0.997721
0.996882
0.995882
0.994605
0.994841
0.995193
0.993582
0.993368
0.993416
0.994096
0.993463
0.993139
0.991736
0.99329
0.996408
0.991542
0.991419
0.99753
0.989105
0.995125
0.993363
0.994797
0.99548
0.995816
0.994762
0.997478
0.993501
0.995167
0.996634
0.995103
0.994813
0.996566
0.996312
0.996162
0.996682
0.997462
0.996779
0.998116
0.997565
0.997085
0.998811
0.999843
0.999878
0.998002
0.999565
0.99916
0.996342
0.998956
0.996354
0.995066
0.998194
0.999027
0.997073
0.993161
0.996526
0.998151
0.996985
0.996294
0.995514
0.999331
0.997042
0.993624
0.996539
0.997268
0.994426
0.997545
0.996323
0.995917
0.996276
0.999391
0.99729
0.997343
0.995975
0.998244
0.99881
0.998698
0.99932
0.995423
0.999216
0.998147
0.996866
0.995045
0.993494
0.999936
0.993031
0.992532
0.993124
0.9954
0.991208
0.989156
0.989028
0.992404
0.991576
0.986241
0.98726
0.992484
0.988513
0.985082
0.986696
0.984032
0.987894
0.984416
0.987658
0.983973
0.983559
0.983939
0.986532
0.985896
0.983178
0.982486
0.984957
0.982454
0.985078
0.983867
0.98456
0.98194
0.982546
0.982301
0.986056
0.982664
0.984532
0.981817
0.982983
0.982587
0.979456
0.984724
0.98227
0.97783
0.980547
0.982619
0.981662
0.980403
0.979581
0.979735
0.978177
0.978849
0.977648
0.97697
0.979031
0.978762
0.976444
0.978302
0.975622
0.977574
0.976714
0.976041
0.976486
0.978641
0.977525
0.976677
0.978508
0.977971
0.979079
0.977911
0.981087
0.98073
0.981199
0.982543
0.983903
0.982546
0.985872
0.9863
0.986688
0.987855
0.988142
0.989567
0.99097
0.992135
0.993357
0.994197
0.995265
0.996414
0.997226
0.99817
0.99877
0.999441
0.99984
0.999992
0.999959
0.999746
0.999348
0.998903
0.998222
0.997138
0.996081
0.994854
0.99343
0.991987
0.990521
0.988906
0.987061
0.985381
0.983867
0.982095
0.980125
0.978542
0.977132
0.97556
0.973905
0.97259
0.971562
0.970471
0.969337
0.968554
0.968276
0.967732
0.967863
0.969046
0.970042
0.970322
0.969483
0.968647
0.968445
0.968097
0.967561
0.966802
0.96707
0.966758
0.966249
0.965906
0.966095
0.9659
0.965696
0.965321
0.965458
0.965572
0.965255
0.96531
0.964992
0.965689
0.965306
0.965539
0.965248
0.965129
0.96584
0.965892
0.965922
0.965668
0.966156
0.966457
0.966412
0.966635
0.966813
0.967099
0.966959
0.96763
0.967224
0.967526
0.967565
0.967556
0.967809
0.967833
0.967415
0.967212
0.967347
0.967044
0.966559
0.966671
0.966199
0.966067
0.965689
0.965757
0.965522
0.964912
0.965163
0.964833
0.964167
0.96411
0.964386
0.964044
0.963802
0.963705
0.963467
0.963632
0.963602
0.963413
0.963341
0.963666
0.96395
0.964075
0.963521
0.963443
0.964004
0.963876
0.964935
0.964378
0.964428
0.964351
0.967016
0.963964
0.96804
0.96541
0.964424
0.965309
0.96859
0.972155
0.97757
0.984157
0.990801
0.978348
0.971129
0.967768
0.964691
0.96256
0.95918
0.956828
0.954981
0.953079
0.951079
0.949041
0.94718
0.945587
0.943944
0.942417
0.940762
0.939071
0.937784
0.936485
0.935073
0.93299
0.932918
0.930529
0.929324
0.928702
0.927413
0.92531
0.924391
0.924147
0.922688
0.921183
0.920633
0.918966
0.918371
0.917351
0.916282
0.914378
0.916438
0.919829
0.917874
0.914926
0.914276
0.914556
0.91377
0.914152
0.914593
0.914539
0.914739
0.915771
0.916844
0.918776
0.921967
0.924612
0.929635
0.936519
0.945819
0.955391
0.974645
0.992192
0.989614
0.970475
0.961032
0.953619
0.946475
0.93896
0.939551
0.932985
0.926784
0.92772
0.923332
0.923754
0.919752
0.918384
0.917399
0.917105
0.915048
0.914561
0.916312
0.914814
0.9146
0.913591
0.913724
0.914498
0.915109
0.917409
0.915798
0.915108
0.91655
0.918723
0.918946
0.920194
0.921062
0.922925
0.923211
0.924821
0.926486
0.928167
0.929684
0.931865
0.93312
0.935478
0.93765
0.940344
0.942346
0.945747
0.947095
0.950491
0.953164
0.955373
0.957402
0.959866
0.962864
0.965037
0.968062
0.970114
0.97226
0.975775
0.977822
0.979475
0.982709
0.98434
0.986413
0.988346
0.990193
0.991818
0.993363
0.994626
0.995835
0.996768
0.997619
0.998358
0.998995
0.999423
0.999789
0.999957
1
0.999958
0.999803
0.999533
0.999081
0.998565
0.998129
0.997612
0.997034
0.996431
0.995824
0.995216
0.99459
0.99401
0.993434
0.992858
0.99234
0.991846
0.99138
0.99095
0.990636
0.990308
0.990079
0.989869
0.989501
0.989173
0.988825
0.988601
0.988261
0.988004
0.987906
0.98785
0.98763
0.987424
0.987607
0.987748
0.987311
0.987435
0.988198
0.988037
0.987576
0.988301
0.989307
0.988788
0.988661
0.989974
0.990594
0.990156
0.990639
0.991858
0.992189
0.99228
0.993082
0.99394
0.9942
0.99466
0.995749
0.996296
0.996378
0.997195
0.998341
0.998599
0.999012
0.999801
0.998951
0.997946
0.999646
0.999729
0.997332
0.998015
0.996461
0.996743
0.997042
0.995767
0.994716
0.99528
0.995686
0.994603
0.993825
0.994548
0.994823
0.993933
0.993541
0.994229
0.994323
0.993737
0.993761
0.994186
0.99414
0.994013
0.994198
0.994407
0.99459
0.994607
0.99469
0.995026
0.995352
0.995429
0.995372
0.995791
0.996374
0.996404
0.996204
0.996777
0.99754
0.997396
0.997102
0.997906
0.998723
0.99845
0.998248
0.999096
0.999907
0.999694
0.998437
0.999576
0.999621
0.999698
0.999757
0.998755
0.997566
0.997614
0.997979
0.997102
0.995849
0.995791
0.996136
0.995478
0.9943
0.994046
0.994426
0.993752
0.992402
0.992132
0.992507
0.991883
0.990547
0.99005
0.990373
0.990019
0.988588
0.987803
0.988318
0.988089
0.986557
0.985902
0.986309
0.985996
0.984949
0.984222
0.984313
0.984543
0.983581
0.982667
0.982905
0.983217
0.982867
0.981818
0.981972
0.982669
0.982093
0.982154
0.981285
0.982101
0.983628
0.982639
0.981036
0.982513
0.986302
0.983846
0.98076
0.984704
0.98959
0.985405
0.981778
0.987006
0.991438
0.986666
0.984225
0.990094
0.99384
0.990106
0.989329
0.994056
0.995919
0.994146
0.99494
0.997886
0.998204
0.997785
0.999662
0.998565
0.999266
0.998702
0.997277
0.996835
0.99722
0.995179
0.993119
0.99403
0.994297
0.992628
0.99169
0.992416
0.992443
0.991154
0.990413
0.991002
0.991344
0.990186
0.989387
0.989725
0.990052
0.989552
0.988968
0.988914
0.989623
0.989782
0.989114
0.988788
0.989137
0.989289
0.989249
0.988892
0.988525
0.988814
0.989086
0.988477
0.988169
0.989017
0.988763
0.98793
0.988911
0.989154
0.98789
0.988804
0.989759
0.988261
0.988834
0.990338
0.989121
0.989352
0.990821
0.98999
0.990665
0.991184
0.991251
0.992239
0.991415
0.992909
0.993357
0.993259
0.993878
0.994657
0.995203
0.995
0.99602
0.996948
0.997001
0.997194
0.998434
0.999257
0.999074
0.999635
0.998688
0.99862
0.99977
0.999617
0.999018
0.998603
0.998562
0.997457
0.995975
0.995749
0.99592
0.995363
0.994248
0.993543
0.994025
0.993765
0.992558
0.992119
0.992366
0.991993
0.99126
0.990956
0.990773
0.990378
0.990073
0.989865
0.989409
0.988892
0.989131
0.988969
0.988104
0.987776
0.988227
0.988034
0.987242
0.986973
0.987863
0.987456
0.986464
0.986619
0.987393
0.987549
0.986783
0.985916
0.986583
0.986976
0.986326
0.986102
0.98626
0.98624
0.98688
0.986849
0.985428
0.985912
0.987234
0.984628
0.98479
0.987812
0.985174
0.985333
0.989202
0.985905
0.987214
0.990289
0.9878
0.989723
0.988659
0.992087
0.993232
0.98955
0.992969
0.994633
0.995394
0.993281
0.995414
0.997977
0.997979
0.995933
0.997152
0.998895
0.998117
0.999968
0.999104
0.996233
0.994858
0.99591
0.996069
0.993585
0.991468
0.992414
0.993446
0.992187
0.99021
0.989805
0.991341
0.991611
0.989545
0.9886
0.990139
0.991255
0.989386
0.98824
0.990139
0.990846
0.989492
0.989145
0.990654
0.991179
0.989783
0.990321
0.991737
0.991467
0.991423
0.99165
0.992328
0.993349
0.993459
0.992376
0.992785
0.995452
0.996127
0.993611
0.993625
0.998045
0.999198
0.994145
0.993122
0.999559
0.996581
0.995366
0.992507
0.997743
0.994275
0.995588
0.993972
0.995794
0.995729
0.997241
0.99981
0.997098
0.998874
0.997691
0.999336
0.998718
0.99493
0.996876
0.999445
0.997258
0.997553
0.995858
0.998023
0.99745
0.997448
0.997043
0.997146
0.996748
0.997382
0.997402
0.996919
0.996249
0.997808
0.997781
0.996915
0.996633
0.997602
0.997926
0.996242
0.997106
0.999252
0.99817
0.996853
0.998212
0.999744
0.999257
0.998341
0.999184
0.999456
0.999675
0.998805
0.999763
0.99992
0.999856
0.998941
0.999987
0.999631
0.999851
0.999037
0.999745
0.999748
0.999128
0.999338
0.999778
0.999807
0.998258
0.999536
0.999984
0.999014
0.99848
0.997925
0.998922
0.999984
0.999316
0.996224
0.997006
0.998556
0.999836
0.996135
0.999466
0.996399
0.997529
0.994132
0.997742
0.998683
0.993766
0.998963
0.994634
0.998932
0.998967
0.992053
0.997771
0.996864
0.997624
0.994094
0.994651
0.99625
0.995599
0.992942
0.993201
0.993882
0.993587
0.992331
0.991553
0.991533
0.991296
0.991428
0.990127
0.988954
0.990205
0.98907
0.989127
0.98709
0.988587
0.989588
0.986237
0.987174
0.987714
0.986727
0.987424
0.983968
0.986012
0.986272
0.98659
0.985054
0.985091
0.986438
0.986839
0.984929
0.98517
0.988162
0.987366
0.984628
0.986253
0.988515
0.988674
0.986338
0.988147
0.987529
0.991939
0.987729
0.988637
0.99155
0.992502
0.990484
0.991081
0.992525
0.994928
0.992347
0.992516
0.994723
0.997356
0.992846
0.997077
0.99628
0.998751
0.99746
0.997572
0.998509
0.999721
0.999837
0.999915
0.9991
0.998992
0.996984
0.999838
0.997864
0.995348
0.996527
0.997883
0.997508
0.996369
0.997319
0.998183
0.996207
0.997698
0.998495
0.999514
0.99854
0.996591
0.996358
0.998266
0.998885
0.996445
0.994916
0.998032
0.999005
0.999536
0.994507
0.994022
0.997991
0.998216
0.996967
0.996159
0.998482
0.998853
0.998076
0.997105
0.998531
0.999295
0.998957
0.997504
0.999684
0.998666
0.998133
0.997204
0.99948
0.998846
0.999027
0.999633
0.999746
0.997833
0.999243
0.999732
0.998753
0.996248
0.998285
0.998601
0.999037
0.997872
0.998754
0.99797
0.998408
0.998051
0.999192
0.996506
0.999259
0.996674
0.99886
0.997732
0.998882
0.996746
0.997044
0.997105
0.99932
0.99759
0.998099
0.996015
0.998527
0.997854
0.998428
0.994688
0.995609
0.999145
0.997034
0.995852
0.997764
0.996482
0.99921
0.997865
0.999004
0.99595
0.999057
0.999827
0.997417
0.994583
0.994764
0.995061
0.998409
0.995459
0.992262
0.996483
0.995708
0.989531
0.991997
0.994673
0.989281
0.991192
0.996105
0.990667
0.992099
0.994867
0.993552
0.990923
0.994409
0.991747
0.989978
0.998773
0.998343
0.989619
0.994684
0.997721
0.996455
0.995591
0.996066
0.999203
0.999041
0.998676
0.997007
0.99434
0.996354
0.998714
0.996596
0.995928
0.998919
0.997235
0.994462
0.996612
0.997186
0.995415
0.99017
0.996237
0.99718
0.991456
0.993742
0.992491
0.989288
0.992138
0.991331
0.99081
0.982147
0.986212
0.994076
0.984181
0.98415
0.985665
0.986061
0.982723
0.982552
0.981655
0.982396
0.980222
0.979999
0.979542
0.978858
0.9779
0.979745
0.975792
0.977029
0.976165
0.978223
0.976534
0.974629
0.975104
0.974137
0.976375
0.975356
0.976061
0.973842
0.972674
0.977035
0.974609
0.974937
0.974633
0.976164
0.975273
0.975428
0.974582
0.977553
0.97756
0.977024
0.976644
0.977734
0.978924
0.977304
0.978491
0.978934
0.97842
0.978486
0.978664
0.980769
0.979234
0.981158
0.979189
0.982182
0.981927
0.981329
0.982299
0.982624
0.98347
0.98235
0.984419
0.984352
0.986538
0.984961
0.987088
0.986828
0.988384
0.987495
0.989689
0.989569
0.990511
0.990844
0.991608
0.991729
0.992486
0.993656
0.994731
0.995143
0.995461
0.9959
0.996482
0.997159
0.997637
0.998298
0.99861
0.998967
0.999361
0.99969
0.999872
0.999973
0.999999
0.999958
0.999835
0.999647
0.999463
0.999122
0.998855
0.998295
0.997679
0.997019
0.996275
0.995527
0.994657
0.993662
0.992664
0.991599
0.990479
0.989155
0.987856
0.986621
0.985251
0.98387
0.982424
0.980989
0.979612
0.978221
0.976809
0.975171
0.973712
0.972387
0.971071
0.969492
0.968114
0.966631
0.965555
0.963882
0.962292
0.960768
0.95964
0.9585
0.957277
0.956536
0.95558
0.954593
0.953606
0.953016
0.952159
0.951395
0.9506
0.95
0.949606
0.948824
0.948328
0.947895
0.947394
0.947147
0.946616
0.946533
0.946127
0.945794
0.945796
0.945581
0.945472
0.945406
0.945255
0.945512
0.945293
0.945448
0.945608
0.945741
0.946046
0.94607
0.946467
0.946669
0.947129
0.947409
0.948163
0.948286
0.949192
0.949761
0.950616
0.951679
0.953088
0.955681
0.958393
0.960337
0.960277
0.960276
0.959795
0.959985
0.960262
0.960153
0.959839
0.96003
0.960113
0.959901
0.960129
0.960122
0.959698
0.959759
0.959826
0.959625
0.959628
0.959761
0.959602
0.959599
0.960832
0.958849
0.962374
0.953069
0.971772
0.942599
0.991456
0.922452
0.940426
0.903547
0.905764
0.889966
0.893096
0.880273
0.879186
0.862681
0.857272
0.864763
0.851965
0.853959
0.867814
0.864895
0.874223
0.915816
0.967795
0.985923
0.971494
0.981011
0.997906
0.997939
0.971513
0.960565
0.956821
0.957874
0.948746
0.946335
0.943928
0.950097
0.948357
0.94619
0.943573
0.942427
0.939695
0.939998
0.937255
0.937026
0.934786
0.934088
0.933009
0.93154
0.930351
0.929746
0.928269
0.927274
0.926803
0.924926
0.924293
0.923889
0.92293
0.921396
0.920309
0.920094
0.919061
0.922686
0.927208
0.924164
0.92144
0.921115
0.922614
0.922913
0.923326
0.924483
0.925623
0.927096
0.930166
0.931625
0.936227
0.940789
0.948855
0.959202
0.965206
0.982395
0.999327
0.984638
0.976948
0.96357
0.955029
0.953762
0.940257
0.937871
0.933214
0.929894
0.926324
0.923724
0.921118
0.917931
0.915726
0.915113
0.913119
0.91202
0.909942
0.910472
0.908544
0.908202
0.907566
0.907253
0.907257
0.907998
0.906955
0.907119
0.907735
0.908437
0.909972
0.910613
0.911407
0.913142
0.915834
0.914939
0.917679
0.91974
0.92211
0.924166
0.925395
0.927996
0.930035
0.933727
0.936009
0.939344
0.943153
0.943996
0.947423
0.950232
0.953164
0.955787
0.957142
0.961048
0.962051
0.966496
0.967045
0.970212
0.973551
0.974181
0.977634
0.978416
0.981655
0.982895
0.98472
0.986633
0.988198
0.989953
0.991526
0.991838
0.993486
0.994449
0.995443
0.996362
0.99684
0.997663
0.998055
0.998461
0.998935
0.999286
0.999576
0.999759
0.99991
0.999974
1
0.999988
0.999939
0.999834
0.999702
0.999516
0.999314
0.999064
0.998825
0.998559
0.99826
0.997941
0.997616
0.99727
0.996879
0.996543
0.996245
0.995792
0.995277
0.994951
0.99448
0.99403
0.993528
0.993049
0.992578
0.992183
0.991739
0.991303
0.990926
0.990675
0.990274
0.989624
0.989152
0.988817
0.988186
0.987548
0.987105
0.986565
0.986035
0.985422
0.985
0.984671
0.983875
0.983314
0.983258
0.982733
0.982169
0.981987
0.981521
0.981082
0.981213
0.980935
0.98015
0.980399
0.980746
0.98
0.979661
0.980388
0.980462
0.979682
0.980124
0.980605
0.979937
0.980738
0.981355
0.979906
0.980911
0.983345
0.981291
0.980066
0.983627
0.984343
0.982005
0.982585
0.984927
0.985252
0.984348
0.985106
0.986231
0.986892
0.987419
0.987127
0.987805
0.989637
0.989989
0.990095
0.991231
0.992687
0.994335
0.995277
0.994883
0.996042
0.997825
0.998757
0.999607
0.99809
0.996652
0.995451
0.99494
0.993491
0.99287
0.994863
0.995222
0.992432
0.992607
0.995836
0.995212
0.99268
0.994372
0.996903
0.99536
0.994211
0.996164
0.996462
0.995674
0.997269
0.996955
0.996086
0.99894
0.998579
0.996806
0.998303
0.998372
0.998641
0.998841
0.998766
0.999732
0.999343
0.998392
0.998495
0.99852
0.998679
0.998136
0.997598
0.999341
0.999459
0.997247
0.997772
0.998568
0.99987
0.997196
0.9994
0.998098
0.999544
0.998585
0.998963
0.999829
0.999307
0.99832
0.998154
0.998672
0.999353
0.999312
0.998932
0.998163
0.998824
0.998295
0.999737
0.995746
0.999835
0.996439
0.997422
0.997321
0.996584
0.999385
0.99589
0.998842
0.998286
0.998059
0.996577
0.998841
0.998875
0.996718
0.997526
0.998637
0.997267
0.996782
0.999752
0.999782
0.997318
0.996095
0.997575
0.998536
0.99654
0.994354
0.995793
0.997834
0.99553
0.993456
0.995733
0.99676
0.994137
0.993534
0.99603
0.996039
0.993518
0.993815
0.996614
0.995576
0.993158
0.994734
0.997378
0.995628
0.993576
0.996198
0.998251
0.995733
0.995144
0.998141
0.998881
0.997223
0.997629
0.999615
0.999877
0.998969
0.999138
0.99928
0.998999
0.999497
0.999545
0.997969
0.99859
0.999005
0.996805
0.99658
0.997631
0.995361
0.995119
0.997255
0.996713
0.993605
0.99373
0.995177
0.996612
0.992916
0.990394
0.996714
0.995777
0.99065
0.992165
0.993998
0.991891
0.991178
0.98953
0.990576
0.992881
0.989735
0.985826
0.988606
0.991953
0.990941
0.985778
0.985561
0.988564
0.989034
0.987008
0.985113
0.986237
0.987485
0.987973
0.98603
0.983536
0.985636
0.990118
0.986279
0.981096
0.988665
0.991783
0.981591
0.983771
0.992864
0.989821
0.985325
0.987023
0.990737
0.993762
0.988931
0.986067
0.99448
0.998607
0.991975
0.989546
0.99613
0.999391
0.99615
0.997617
0.996706
0.994993
0.995631
0.995024
0.9942
0.994377
0.999668
0.997923
0.995281
0.995881
0.99597
0.993446
0.99215
0.991537
0.991371
0.991663
0.99044
0.990273
0.990767
0.987828
0.986592
0.987721
0.989076
0.988113
0.986702
0.984845
0.984132
0.984627
0.985521
0.983379
0.98024
0.983803
0.984885
0.979259
0.98161
0.98408
0.978549
0.982324
0.982521
0.979509
0.97876
0.982137
0.983318
0.97983
0.981471
0.978081
0.979913
0.982402
0.981599
0.981891
0.980161
0.980297
0.983659
0.983955
0.981548
0.981459
0.982783
0.985062
0.985485
0.983234
0.984089
0.988764
0.986035
0.983347
0.98993
0.98782
0.983519
0.99146
0.993292
0.98565
0.98822
0.992773
0.993275
0.991344
0.990019
0.994019
0.996024
0.996323
0.995594
0.99366
0.996275
0.999834
0.999395
0.997452
0.99648
0.999467
0.999648
0.995758
0.996643
0.994711
0.995867
0.995258
0.991973
0.992759
0.994441
0.991061
0.991181
0.989419
0.991005
0.99154
0.984916
0.983772
0.987902
0.988439
0.984016
0.979201
0.980833
0.984056
0.98078
0.97898
0.976757
0.97758
0.978086
0.974633
0.972388
0.972133
0.974275
0.970259
0.971737
0.968519
0.969719
0.970268
0.964151
0.968964
0.965367
0.965792
0.965763
0.964045
0.965579
0.965067
0.961883
0.961818
0.962041
0.966345
0.962223
0.961018
0.961642
0.963546
0.962843
0.961716
0.961587
0.960102
0.960259
0.961164
0.961295
0.961502
0.961973
0.961458
0.960227
0.964259
0.980288
0.979022
0.953999
0.958596
0.994132
0.997273
0.961089
0.962686
0.992665
0.998137
0.974898
0.982568
0.994298
0.990688
0.991032
0.992736
0.987283
0.993671
0.990083
0.990545
0.999129
0.99054
0.997936
0.99384
0.990669
0.992517
0.981673
0.982498
0.991772
0.984172
0.982553
0.985478
0.984289
0.98276
0.983469
0.985809
0.979488
0.985086
0.980919
0.980885
0.984988
0.980091
0.977997
0.981738
0.978064
0.982553
0.984464
0.984936
0.982192
0.982336
0.985362
0.991773
0.984129
0.975115
0.983142
0.99518
0.996625
0.997536
0.99494
0.98894
0.990429
0.989701
0.985523
0.983432
0.988206
0.996863
0.989766
0.987201
0.997346
0.985837
0.998423
0.979788
0.988334
0.993046
0.999712
0.974452
0.976663
0.996877
0.999852
0.97523
0.970907
0.996424
0.995029
0.981124
0.966131
0.990919
0.981949
0.992902
0.973893
0.983136
0.987614
0.992229
0.980528
0.981179
0.993012
0.98823
0.991356
0.978461
0.998222
0.983283
0.999288
0.980464
0.991261
0.982269
0.992031
0.990188
0.992617
0.998497
0.982303
0.993086
0.990229
0.996322
0.982914
0.995448
0.979221
0.979959
0.989939
0.986784
0.987929
0.995051
0.974927
0.988122
0.99732
0.985595
0.998063
0.982225
0.980869
0.982948
0.988172
0.963508
0.995261
0.985377
0.997576
0.963805
0.982726
0.975203
0.976003
0.965664
0.960887
0.993169
0.979447
0.998824
0.965799
0.95693
0.970952
0.979412
0.946352
0.957148
0.965885
0.997087
0.93694
0.967602
0.962281
0.986622
0.943416
0.981189
0.970775
0.991855
0.955365
0.981331
0.991474
0.98213
0.959991
0.97662
0.982139
0.954655
0.960741
0.980299
0.971563
0.960975
0.960611
0.975809
0.992695
0.944282
0.997457
0.982771
0.952346
0.950519
0.982068
0.973788
0.946678
0.998297
0.965368
0.944872
0.978625
0.946876
0.95369
0.985711
0.936838
0.926305
0.993848
0.984529
0.929049
0.928062
0.978808
0.963834
0.914915
0.945293
0.96694
0.935087
0.921773
0.978906
0.988129
0.936319
0.937253
0.977892
0.965908
0.940156
0.96008
0.968985
0.958084
0.967526
0.964161
0.961057
0.969791
0.970987
0.975082
0.978425
0.972603
0.977862
0.986656
0.980214
0.98071
0.989448
0.989707