/*--------------------------------*- C++ -*----------------------------------*\
| =========                 |                                                 |
| \\      /  F ield         | OpenFOAM: The Open Source CFD Toolbox           |
|  \\    /   O peration     | Version:  v1812                                 |
|   \\  /    A nd           | Web:      www.OpenFOAM.com                      |
|    \\/     M anipulation  |                                                 |
\*---------------------------------------------------------------------------*/
FoamFile
{
    version     2.0;
    format      ascii;
    class       volScalarField;
    location    "300";
    object      omega;
}
// * * * * * * * * * * * * * * * * * * * * * * * * * * * * * * * * * * * * * //

dimensions      [0 0 -1 0 0 0 0];


internalField   nonuniform List<scalar> 
366376
(
61.2218
61.2205
61.2089
61.1943
61.177
61.1576
61.1366
61.1142
61.0905
61.0657
61.0399
61.0133
60.9859
60.9578
60.929
60.8997
60.8699
60.8394
60.8083
60.7764
60.7438
60.7105
60.6765
60.642
60.607
60.5715
60.5355
60.499
60.462
60.4245
60.3866
60.3481
60.3092
60.2699
60.2301
60.1898
60.1492
60.108
60.0665
60.0245
59.9821
59.9392
59.8959
59.8522
59.808
59.7634
59.7184
59.6729
59.627
59.5806
59.5339
59.4867
59.4391
59.391
59.3426
59.2937
59.2445
59.1948
59.1447
59.0943
59.0435
58.9922
58.9406
58.8887
58.8363
58.7836
58.7306
58.6772
58.6235
58.5695
58.5151
58.4605
58.4056
58.3503
58.2948
58.2391
58.1831
58.1268
58.0703
58.0136
57.9568
57.8997
57.8425
57.7851
57.7276
57.67
57.6123
57.5544
57.4966
57.4387
57.3807
57.3228
57.2648
57.2069
57.1491
57.0913
57.0337
56.9762
56.9188
56.8616
56.8047
56.7479
56.6915
56.6353
56.5794
56.5239
56.4688
56.4142
56.3599
56.3062
56.253
56.2003
56.1482
56.0968
56.046
55.996
55.9466
55.8981
55.8505
55.8037
55.7577
55.7121
55.6667
55.6217
55.5771
55.5328
55.489
55.4456
55.4027
55.3603
55.3184
55.2771
55.2364
55.1964
55.157
55.1184
55.0805
55.0434
55.0072
54.9719
54.9375
54.9041
54.8717
54.8404
54.8102
54.7812
54.7534
54.7269
54.7017
54.6779
54.6556
54.6348
54.6156
54.598
54.5822
54.5681
54.5559
54.5457
54.5375
54.5313
54.5274
54.5257
54.5264
54.5295
54.5352
54.5435
54.5546
54.5685
54.5854
54.6053
54.6284
54.6549
54.6848
54.7182
54.7554
54.7964
54.8414
54.8906
54.9441
55.002
55.0646
55.132
55.2044
55.2821
55.3651
55.4538
55.5483
55.6489
55.7558
55.8693
55.9897
56.1171
56.2519
56.3945
56.5451
56.704
56.8716
57.0483
57.2345
57.4305
57.6368
57.8538
58.082
58.3218
58.5738
58.8385
59.1165
59.4083
59.7146
60.036
60.3732
60.7269
61.0979
61.4869
61.8949
62.3226
62.7712
63.2416
63.7343
64.2378
64.7485
65.2662
65.791
66.3229
66.8621
67.4087
67.963
68.5249
69.0949
69.6729
70.2592
70.854
71.4575
72.07
72.6918
73.3232
73.9646
74.6162
75.2785
75.9517
76.6363
77.3327
78.0414
78.7629
79.4977
80.2464
81.0096
81.7879
82.582
83.3927
84.2209
85.0672
85.9328
86.8186
87.7196
88.6308
89.5518
90.4827
91.423
92.3727
93.3314
94.2988
95.2748
96.2589
97.251
98.2508
99.2578
100.272
101.293
102.32
103.353
104.391
105.435
106.484
107.537
108.594
109.655
110.719
111.785
112.855
113.925
114.998
116.071
117.145
118.218
119.291
120.363
121.434
122.502
123.568
124.63
125.689
126.743
127.792
128.836
129.874
130.905
131.929
132.946
133.953
134.952
135.941
136.919
137.887
138.843
139.787
140.718
141.636
142.539
143.428
144.302
145.159
145.999
146.823
147.628
148.415
149.182
149.929
150.656
151.362
152.046
152.707
153.345
153.96
154.55
155.115
155.654
156.168
156.654
157.113
157.544
157.946
158.319
158.662
158.975
159.257
159.507
159.726
159.911
160.064
160.182
160.267
160.316
160.331
160.312
160.255
160.161
160.028
159.859
159.65
159.403
159.117
158.791
158.425
158.018
157.572
157.086
156.562
155.999
155.399
154.76
154.082
153.366
152.612
151.82
150.989
150.12
149.214
148.27
147.288
146.27
145.214
144.123
142.995
141.833
140.635
139.403
138.138
136.84
135.511
134.15
132.759
131.34
129.892
128.418
126.918
125.394
123.847
122.279
120.691
119.085
117.462
115.825
114.174
112.513
110.842
109.164
107.481
105.795
104.107
102.421
100.738
99.0595
97.3889
95.7278
94.0784
92.4427
90.823
89.2211
87.6392
86.079
84.5426
83.0316
81.5479
80.093
78.6684
77.2757
75.916
74.5907
73.3008
72.0473
70.831
69.6526
68.5128
67.4119
66.3502
65.3281
64.3456
63.4025
62.4988
61.6341
60.8082
60.0204
59.2703
58.5571
57.8802
57.2386
56.6317
56.0584
55.5178
55.009
54.5308
54.0824
53.6626
53.2705
52.9049
52.5649
52.2495
51.9577
51.6885
51.4411
51.2144
51.0077
50.8201
50.6509
50.4992
50.3644
50.2431
50.1312
50.0283
49.9345
49.8496
49.7735
49.706
49.6471
49.5967
49.5547
49.5211
49.4958
49.4788
49.47
49.4694
49.477
49.4928
49.5169
49.5492
49.5899
49.6388
49.6962
49.762
49.8364
49.9194
50.0112
50.1119
50.2216
50.3404
50.4685
50.606
50.7532
50.9102
51.0772
51.2542
51.4393
51.6233
51.8049
51.9839
52.1605
52.3346
52.5062
52.6754
52.8421
53.0063
53.1681
53.3274
53.4843
53.6387
53.7908
53.9404
54.0877
54.2326
54.3752
54.5155
54.6535
54.7893
54.9228
55.0541
55.1832
55.3101
55.435
55.5577
55.6784
55.797
55.9136
56.0283
56.141
56.2517
56.3606
56.4677
56.5729
56.6763
56.7779
56.8778
56.9761
57.0726
57.1675
57.2608
57.3525
57.4427
57.5314
57.6185
57.7043
57.7886
57.8714
57.953
58.0332
58.112
58.1896
58.266
58.3411
58.415
58.4877
58.5593
58.6298
58.6992
58.7675
58.8348
58.9009
58.9661
59.0311
59.0951
59.1576
59.2194
59.2803
59.3403
59.3996
59.4581
59.5159
59.5729
59.6292
59.6848
59.7398
59.7942
59.8479
59.9011
59.9537
60.0057
60.0573
60.1083
60.1589
60.209
60.2587
60.308
60.3569
60.4054
60.4536
60.5015
60.5491
60.5963
60.6434
60.6902
60.7367
60.7827
60.8277
60.8719
60.9151
60.9575
60.999
61.0396
61.0794
61.1185
61.1567
61.1941
61.2307
61.2666
61.3018
61.3362
61.3699
61.4029
61.4352
61.4668
61.4978
61.5281
61.5578
61.5868
61.6152
61.643
61.6703
61.6969
61.723
61.7485
61.7735
61.7979
61.8218
61.8452
61.8681
61.8905
61.9124
61.9338
61.9548
61.9753
61.9953
62.0149
62.0341
62.0528
62.0711
62.0891
62.1066
62.1237
62.1405
62.1568
62.1728
62.1885
62.2037
62.2187
62.2333
62.2475
62.2615
62.2751
62.2884
62.3014
62.314
62.3264
62.3385
62.3503
62.3619
62.3731
62.3841
62.3949
62.4053
62.4155
62.4255
62.4352
62.4447
62.4539
62.463
62.4718
62.4804
62.4887
62.4969
62.5048
62.5125
62.52
62.5274
62.5345
62.5415
62.5482
62.5548
62.5612
62.5674
62.5735
62.5794
62.5851
62.5906
62.596
62.6013
62.6063
62.6112
62.616
62.6206
62.6251
62.6295
62.6337
62.6378
62.6417
62.6455
62.6491
62.6527
62.6561
62.6594
62.6625
62.6655
62.6684
62.6712
62.6739
62.6765
62.6789
62.6813
62.6835
62.6856
62.6876
62.6894
62.6912
62.6929
62.6946
62.6961
62.6974
62.6987
62.6998
62.7009
62.7019
62.7028
62.7036
62.7042
62.7048
62.7053
62.7057
62.706
62.7064
62.7066
62.7067
62.7066
62.7064
62.7062
62.7059
62.7054
62.705
62.7046
62.7041
62.7031
62.7022
62.7013
62.7003
62.6992
62.6977
62.6966
62.6956
62.6941
62.6926
62.6909
62.6891
62.6877
62.6856
62.6835
62.6819
62.6799
62.6777
62.6755
62.6731
62.6706
62.6681
62.6655
62.6628
62.6601
62.6572
62.6542
62.6511
62.648
62.6448
62.6415
62.6381
62.6346
62.631
62.6274
62.6236
62.6198
62.6158
62.6118
62.6077
62.6034
62.5991
62.5947
62.5902
62.5855
62.5808
62.5759
62.571
62.566
62.5608
62.5556
62.5503
62.5449
62.5393
62.5336
62.5279
62.5221
62.5161
62.51
62.5039
62.4976
62.4912
62.4847
62.4781
62.4714
62.4645
62.4575
62.4504
62.4432
62.4359
62.4285
62.4209
62.4132
62.4054
62.3974
62.3894
62.3813
62.373
62.3645
62.3559
62.3471
62.3382
62.3293
62.3202
62.3109
62.3015
62.2919
62.2821
62.2723
62.2623
62.2522
62.2418
62.2312
62.2205
62.2096
62.1987
62.1875
62.176
62.1643
62.1524
62.1403
62.1281
62.1157
62.1029
62.0897
62.0763
62.0626
62.0487
62.0345
62.0199
62.0047
61.989
61.9732
61.9571
61.9404
61.9229
61.9048
61.8863
61.8672
61.8475
61.8269
61.8054
61.7833
61.7604
61.7366
61.7117
61.686
61.6592
61.6313
61.6022
61.572
61.5407
61.5081
61.4742
61.439
61.4026
61.365
61.3261
61.2857
61.244
61.2009
61.1567
61.1112
61.0645
61.0166
60.9677
60.9177
60.8668
60.8151
60.7626
60.7093
60.6555
60.601
60.546
60.4923
60.4405
60.3905
60.3424
60.296
60.2512
60.2078
60.1657
60.1248
60.0852
60.0468
60.0095
59.9731
59.9375
59.9026
59.8683
59.8344
59.8008
59.7676
59.7346
59.7017
59.6689
59.6359
59.6029
59.5698
59.5364
59.5025
59.4679
59.4325
59.3966
59.36
59.3229
59.2851
59.2466
59.2074
59.1676
59.1272
59.0863
59.0448
59.0028
58.9605
58.9177
58.8747
58.8314
58.788
58.7444
58.7008
58.6572
58.6138
58.5708
58.5284
58.4866
58.4455
58.4052
58.3658
58.3274
58.2901
58.254
58.2194
58.1862
58.1545
58.1246
58.0964
58.0701
58.0459
58.0237
58.0038
57.9863
57.9711
57.9586
57.9486
57.9414
57.937
57.9355
57.9368
57.9409
57.9479
57.9577
57.9702
57.9855
58.0033
58.0236
58.0462
58.071
58.0979
58.1266
58.1572
58.1895
58.2234
58.2588
58.2956
58.3339
58.3734
58.414
58.4558
58.4986
58.5426
58.5873
58.6327
58.6791
58.7274
58.78
58.8365
58.8965
58.9601
59.0272
59.0975
59.1703
59.2453
59.3226
59.4017
59.4823
59.5639
59.6467
59.7308
59.8155
59.9004
59.9857
60.0712
60.1568
60.242
60.3268
60.4111
60.4944
60.5758
60.655
60.7324
60.8077
60.8807
60.9513
61.0195
61.0853
61.1486
61.2093
61.2673
61.3225
61.375
61.4246
61.4714
61.5154
61.5568
61.5953
61.6311
61.6643
61.6948
61.7227
61.7481
61.7713
61.7925
61.8122
61.8305
61.8477
61.864
61.8795
61.8944
61.9087
61.9227
61.9364
61.9502
61.9641
61.9784
61.9929
62.008
62.0237
62.0404
62.0583
62.0772
62.0975
62.1197
62.1432
62.1683
62.1956
62.2251
62.2572
62.2918
62.3294
62.3698
62.4129
62.4586
62.5076
62.5604
62.6164
62.6756
62.7385
62.8051
62.8754
62.9492
63.0265
63.1076
63.1925
63.2808
63.3725
63.4679
63.5666
63.6687
63.7739
63.8821
63.9933
64.1073
64.2238
64.3425
64.4635
64.5864
64.7108
64.8366
64.9638
65.0918
65.2201
65.3486
65.4771
65.6055
65.733
65.8595
65.9846
66.1079
66.2291
66.348
66.4641
66.5773
66.6871
66.7933
66.8958
66.9943
67.0884
67.178
67.2628
67.3428
67.4175
67.4869
67.5508
67.6092
67.662
67.7091
67.7504
67.7861
67.8162
67.8409
67.8603
67.8743
67.8826
67.8851
67.8826
67.8747
67.862
67.8444
67.8216
67.795
67.7641
67.7292
67.6897
67.6449
67.5958
67.5442
67.4886
67.4282
67.3656
67.2986
67.2286
67.155
67.0785
66.9988
66.9159
66.8301
66.7414
66.6498
66.5556
66.459
66.3595
66.2575
66.1533
66.0471
65.9388
65.828
65.7157
65.6019
65.4869
65.3698
65.2519
65.1332
65.0137
64.8932
64.7722
64.6513
64.53
64.4088
64.2877
64.167
64.0467
63.927
63.8078
63.6895
63.5721
63.4556
63.3402
63.2257
63.1122
62.9999
62.8886
62.7784
62.6693
62.5612
62.4542
62.3481
62.2429
62.1386
62.0351
61.9324
61.8304
61.7292
61.6288
61.5289
61.4298
61.3315
61.2338
61.1367
61.0404
60.9449
60.8502
60.7563
60.6632
60.5712
60.4802
60.3904
60.3017
60.2144
60.1286
60.0443
59.9617
59.8808
59.802
59.7251
59.6505
59.5781
59.5082
59.4408
59.3763
59.3145
59.2558
59.2001
59.1476
59.0985
59.0529
59.0109
58.9724
58.9376
58.9067
58.8798
58.8566
58.8375
58.8223
58.8113
58.8042
58.801
58.8019
58.8067
58.8153
58.8279
58.8441
58.8639
58.8873
58.9141
58.9443
58.9777
59.0146
59.0546
59.0974
59.142
59.1883
59.2358
59.2847
59.3347
59.3858
59.4378
59.491
59.5451
59.6004
59.6567
59.7144
59.7737
59.8346
59.8975
59.9627
60.031
60.1022
60.177
60.2563
60.3407
60.4302
60.5261
60.6295
60.741
60.8613
60.9917
61.1336
61.288
61.4559
61.639
61.8389
62.0568
62.2945
62.5536
62.8362
63.1441
63.4792
63.8439
64.2406
64.6713
65.1384
65.6444
66.1917
66.7687
67.3559
67.9528
68.5597
69.1764
69.8028
70.4392
71.0859
71.7434
72.4117
73.0914
73.7827
74.4861
75.2021
75.9309
76.6732
77.4294
78.2002
78.9859
79.7873
80.605
81.4398
82.2922
83.1632
84.0535
84.9642
85.8963
86.8411
87.7942
88.7552
89.7237
90.699
91.6807
92.6685
93.6617
94.6597
95.6622
96.6687
97.6786
98.6916
99.7072
100.725
101.744
102.765
103.786
104.808
105.829
106.85
107.869
108.887
109.902
110.915
111.925
112.93
113.932
114.928
115.919
116.904
117.882
118.853
119.816
120.77
121.715
122.65
123.574
124.487
125.389
126.277
127.152
128.013
128.86
129.691
130.506
131.304
132.085
132.848
133.591
134.315
135.019
135.702
136.363
137.001
137.616
138.207
138.774
139.315
139.831
140.321
140.783
141.219
141.626
142.005
142.355
142.676
142.967
143.228
143.458
143.657
143.825
143.961
144.065
144.136
144.174
144.18
144.154
144.092
143.995
143.864
143.698
143.496
143.26
142.987
142.68
142.336
141.957
141.542
141.092
140.608
140.092
139.541
138.957
138.339
137.689
137.005
136.287
135.537
134.754
133.938
133.089
132.207
131.292
130.344
129.364
128.352
127.307
126.23
125.122
123.983
122.814
121.614
120.385
119.128
117.842
116.529
115.191
113.829
112.443
111.036
109.61
108.165
106.703
105.227
103.738
102.237
100.728
99.2113
97.6904
96.1666
94.6433
93.1229
91.6073
90.0995
88.6023
87.118
85.649
84.1982
82.7681
81.3609
79.9791
78.6252
77.3014
76.0098
74.7522
73.5305
72.3462
71.2005
70.0947
69.0297
68.0061
67.0242
66.0846
65.1867
64.3303
63.5149
62.7395
62.0032
61.3046
60.6424
60.015
59.4209
58.8585
58.3261
57.8221
57.3446
56.8925
56.464
56.0573
55.6712
55.3045
54.9554
54.6227
54.3058
54.0034
53.7144
53.4379
53.1734
52.92
52.6769
52.4437
52.22
52.0053
51.7992
51.6014
51.4118
51.2301
51.0561
50.8898
50.7309
50.5797
50.4359
50.2991
50.165
50.0321
49.9005
49.7707
49.6427
49.5169
49.3936
49.2733
49.1561
49.0424
48.9329
48.8282
48.7289
48.6354
48.548
48.4671
48.3929
48.326
48.267
48.2163
48.1744
48.142
48.1196
48.1077
48.1069
48.1178
48.141
48.177
48.2264
48.2897
48.3675
48.4603
48.5685
48.6927
48.8333
48.9904
49.1548
49.3193
49.4835
49.6475
49.8113
49.9748
50.138
50.3007
50.4631
50.6251
50.7866
50.9477
51.1084
51.2685
51.428
51.5869
51.7451
51.9024
52.059
52.2148
52.3697
52.5237
52.6768
52.8289
52.98
53.1299
53.2786
53.4262
53.5723
53.7169
53.8601
54.0016
54.1413
54.2792
54.4152
54.5491
54.6808
54.8103
54.9374
55.062
55.1839
55.3033
55.4198
55.5333
55.6439
55.7514
55.8557
55.9568
56.0545
56.1487
56.2395
56.3268
56.4104
56.4904
56.5666
56.6392
56.7079
56.7729
56.8338
56.8909
56.9442
56.9944
57.0421
57.0887
57.1353
57.1792
57.2197
57.2569
57.2908
57.3211
57.3476
57.3703
57.3895
57.4051
57.4169
57.4249
57.4295
57.4304
57.4279
57.422
57.4128
57.4004
57.3848
57.3662
57.3447
57.3206
57.2939
57.2647
57.2333
57.1998
57.1643
57.127
57.0879
57.0473
57.0054
56.9621
56.9176
56.8722
56.826
56.7789
56.7312
56.6831
56.6347
56.5861
56.5373
56.4888
56.4405
56.3925
56.3448
56.2977
56.2511
56.2052
56.1601
56.1162
56.0734
56.0318
55.9915
55.9527
55.9154
55.8797
55.8456
55.8135
55.7833
55.755
55.7288
55.7048
55.6832
55.6638
55.6467
55.6323
55.6204
55.611
55.6042
55.6002
55.599
55.6004
55.6045
55.6114
55.6212
55.6337
55.649
55.6671
55.688
55.7117
55.738
55.7672
55.7991
55.8337
55.8708
55.9105
55.9529
55.9978
56.0451
56.0946
56.1466
56.2009
56.2573
56.3156
56.3759
56.4382
56.5022
56.5677
56.6345
56.703
56.7728
56.8433
56.9146
56.9871
57.0604
57.1357
57.2141
57.2957
57.3799
57.4655
57.5525
57.6408
57.73
57.8192
57.9084
57.9974
58.0858
58.1734
58.2598
58.3449
58.4284
58.5103
58.5903
58.6681
58.7436
58.8167
58.8873
58.9551
59.0203
59.0827
59.1421
59.1984
59.2518
59.302
59.349
59.3927
59.4332
59.4705
59.5042
59.5343
59.5609
59.584
59.6034
59.6193
59.6315
59.6405
59.6466
59.6499
59.6504
59.6484
59.6437
59.6362
59.6258
59.6127
59.597
59.5785
59.5571
59.533
59.5063
59.477
59.4449
59.4103
59.3731
59.3332
59.2907
59.2458
59.1984
59.1484
59.0964
59.0422
58.9857
58.9272
58.867
58.8047
58.7408
58.6754
58.6084
58.5402
58.4707
58.4003
58.329
58.2568
58.1842
58.1113
58.038
57.9647
57.8916
57.8188
57.7464
57.6745
57.6035
57.5335
57.4645
57.3969
57.3306
57.2659
57.2029
57.1418
57.0825
57.0251
56.9698
56.9168
56.8661
56.8178
56.772
56.729
56.6888
56.6513
56.6167
56.5852
56.5567
56.5313
56.5091
56.4901
56.4743
56.4617
56.4524
56.4463
56.4437
56.4442
56.448
56.4551
56.4653
56.4788
56.4954
56.5151
56.5378
56.5636
56.5923
56.6237
56.6578
56.6946
56.7339
56.7757
56.82
56.8666
56.9156
56.9668
57.0199
57.0753
57.1327
57.192
57.253
57.3158
57.3803
57.4465
57.514
57.5838
57.6577
57.7358
57.8177
57.9031
57.9921
58.0844
58.1798
58.2781
58.3791
58.4824
58.5881
58.6958
58.8051
58.9159
59.0281
59.1415
59.2554
59.3696
59.4841
59.5986
59.7126
59.8258
59.9383
60.0496
60.1593
60.2672
60.3731
60.4768
60.5776
60.6755
60.7702
60.8613
60.9485
61.0316
61.1107
61.1856
61.2559
61.3217
61.3831
61.4401
61.4924
61.5402
61.5835
61.6225
61.6571
61.6873
61.7131
61.735
61.7528
61.7666
61.7765
61.7828
61.7854
61.7846
61.7806
61.7735
61.7635
61.7507
61.7353
61.7177
61.6979
61.6761
61.6525
61.6275
61.6015
61.5744
61.5463
61.518
61.4897
61.4615
61.4332
61.4057
61.3791
61.3529
61.3264
61.3008
61.2769
61.2539
61.2309
61.2087
61.1884
61.169
61.1497
61.1314
61.1147
61.0992
61.0843
61.0704
61.0577
61.0462
61.0357
61.0259
61.0172
61.0097
61.0032
60.9974
60.9926
60.9888
60.986
60.9841
60.9832
60.9832
60.984
60.9856
60.988
60.9911
60.9949
60.9994
61.0044
61.0099
61.0159
61.0223
61.029
61.0358
61.0428
61.0497
61.0565
61.063
61.0692
61.075
61.0804
61.0853
61.0898
61.0938
61.0972
61.1
61.1023
61.1039
61.1049
61.1052
61.1049
61.104
61.1023
61.0998
61.0967
61.0928
61.0881
61.0828
61.0768
61.0701
61.0627
61.0547
61.0462
61.037
61.0274
61.0175
61.0069
60.9957
60.9839
60.9718
60.9601
60.9487
60.9371
60.9246
60.9124
60.9007
60.8885
60.8765
60.8653
60.8543
60.8431
60.8326
60.8228
60.8137
60.805
60.7969
60.7901
60.7844
60.7796
60.776
60.7744
60.7751
60.7802
60.7884
60.7988
60.8115
60.8268
60.8445
60.865
60.8884
60.9149
60.9445
60.977
61.0125
61.0516
61.0941
61.1399
61.189
61.2419
61.2985
61.3586
61.4222
61.4897
61.5612
61.6365
61.7153
61.7981
61.8849
61.9754
62.0692
62.1665
62.2675
62.3717
62.4786
62.5884
62.7014
62.8173
62.9353
63.0555
63.1782
63.303
63.4293
63.5568
63.6858
63.8162
63.9471
64.0786
64.2109
64.3435
64.4759
64.6082
64.7405
64.8723
65.0033
65.1336
65.2632
65.3916
65.5187
65.6446
65.769
65.8918
66.0127
66.1317
66.2486
66.3634
66.4759
66.5858
66.6933
66.7981
66.9001
66.9994
67.0958
67.1894
67.2799
67.3675
67.4522
67.5339
67.6125
67.6881
67.7607
67.8302
67.8967
67.9602
68.0208
68.0785
68.1333
68.1854
68.2349
68.2818
68.3263
68.3683
68.408
68.4456
68.4811
68.5143
68.5454
68.5747
68.6021
68.6276
68.6512
68.6732
68.6936
68.7124
68.7294
68.7444
68.7574
68.7685
68.7776
68.7849
68.7902
68.7931
68.7936
68.7923
68.7894
68.7849
68.7788
68.7707
68.7603
68.7469
68.7309
68.7135
68.694
68.671
68.6462
68.6197
68.5898
68.5579
68.5232
68.4863
68.447
68.405
68.3606
68.3133
68.2642
68.2121
68.1583
68.1014
68.0431
67.9823
67.9199
67.8556
67.7897
67.7218
67.6528
67.5821
67.5108
67.4382
67.3651
67.2914
67.2175
67.1432
67.0682
66.9933
66.9182
66.8428
66.7672
66.6912
66.6158
66.5405
66.4655
66.3906
66.3158
66.2412
66.1669
66.0926
66.0181
65.9432
65.868
65.7924
65.717
65.642
65.5672
65.4926
65.4181
65.3436
65.2693
65.1955
65.122
65.049
64.9764
64.9042
64.8328
64.7624
64.6928
64.6242
64.5566
64.49
64.4243
64.3595
64.2955
64.2324
64.1702
64.1092
64.0492
63.9901
63.9317
63.8738
63.816
63.7582
63.7004
63.6427
63.585
63.5268
63.4677
63.408
63.3472
63.2846
63.2204
63.1543
63.0856
63.0145
62.9407
62.8641
62.7843
62.7012
62.6147
62.5237
62.4285
62.3296
62.2266
62.1192
62.0074
61.8916
61.7716
61.6475
61.5195
61.3879
61.2528
61.1144
60.9729
60.8292
60.6839
60.5373
60.3897
60.2416
60.0934
59.9456
59.7986
59.653
59.5091
59.3675
59.2287
59.093
58.9611
58.8332
58.7096
58.5906
58.4764
58.3673
58.2634
58.165
58.0723
57.9847
57.9008
57.8207
57.7449
57.6737
57.6079
57.5479
57.494
57.4467
57.4063
57.3729
57.3471
57.3291
57.3192
57.3173
57.3239
57.3389
57.3626
57.395
57.436
57.4858
57.5442
57.6113
57.6868
57.7712
57.864
57.9655
58.075
58.1931
58.3194
58.4543
58.5972
58.7486
58.9084
59.0767
59.2536
59.4392
59.6337
59.8373
60.0501
60.2726
60.505
60.7475
61.0006
61.2647
61.54
61.8273
62.1269
62.4393
62.7655
63.1058
63.461
63.8323
64.2198
64.6248
65.0484
65.4913
65.9545
66.4396
66.9477
67.4743
68.0072
68.5457
69.0901
69.6408
70.198
70.7619
71.3324
71.9099
72.4944
73.0862
73.6859
74.294
74.9107
75.5367
76.1722
76.8179
77.4742
78.1415
78.8201
79.5107
80.2137
80.9298
81.6596
82.4037
83.1628
83.9378
84.7295
85.5389
86.367
87.2149
88.0774
88.9485
89.8281
90.7159
91.6114
92.5141
93.4236
94.3395
95.2613
96.1886
97.1211
98.0583
98.9998
99.9451
100.894
101.845
102.799
103.755
104.713
105.671
106.63
107.588
108.546
109.503
110.458
111.411
112.36
113.306
114.248
115.186
116.118
117.044
117.963
118.875
119.779
120.674
121.56
122.436
123.302
124.157
125
125.831
126.649
127.454
128.245
129.022
129.783
130.53
131.26
131.974
132.671
133.35
134.012
134.655
135.279
135.884
136.469
137.034
137.578
138.1
138.6
139.078
139.533
139.964
140.372
140.757
141.117
141.452
141.76
142.041
142.296
142.523
142.724
142.893
143.03
143.124
143.182
143.187
143.159
143.063
142.928
142.717
142.439
142.072
141.502
141.187
139.108
138.958
139.178
139.572
139.871
139.941
139.905
139.769
139.543
139.274
138.985
138.676
138.329
137.921
137.431
136.848
136.178
135.444
134.674
133.889
133.093
132.279
131.439
130.568
129.663
128.726
127.759
126.76
125.732
124.675
123.589
122.475
121.333
120.165
118.971
117.752
116.509
115.244
113.956
112.648
111.32
109.974
108.612
107.234
105.841
104.436
103.02
101.595
100.161
98.722
97.2796
95.8339
94.3873
92.943
91.5012
90.0637
88.634
87.2134
85.8032
84.4058
83.0229
81.6565
80.3086
78.9807
77.6739
76.3909
75.1331
73.9013
72.6975
71.5228
70.3785
69.266
68.1863
67.1397
66.1268
65.1486
64.2057
63.2982
62.4259
61.589
60.7873
60.0203
59.2878
58.5896
57.9251
57.293
56.693
56.1242
55.5851
55.0749
54.5929
54.1377
53.7083
53.3041
52.9238
52.5663
52.2312
51.9171
51.6232
51.349
51.0934
50.8556
50.6351
50.4309
50.2425
50.0693
49.9105
49.7657
49.6341
49.5154
49.4087
49.3104
49.2192
49.1349
49.0572
48.9861
48.9213
48.8627
48.81
48.763
48.7217
48.6857
48.6548
48.629
48.6079
48.5913
48.5791
48.5712
48.5673
48.5674
48.5712
48.5788
48.59
48.6046
48.6226
48.644
48.6686
48.6965
48.7277
48.7622
48.8001
48.8413
48.886
48.9342
48.9861
49.0418
49.1014
49.1652
49.2334
49.3062
49.384
49.4671
49.5559
49.6507
49.752
49.8605
49.9719
50.0818
50.1901
50.2967
50.4019
50.5057
50.608
50.7089
50.8086
50.9074
51.0052
51.1018
51.1973
51.2921
51.3863
51.4798
51.5726
51.6649
51.7567
51.8482
51.9393
52.0302
52.1209
52.2117
52.3025
52.3936
52.485
52.5768
52.6691
52.762
52.8555
52.9499
53.045
53.141
53.2379
53.3359
53.4349
53.5349
53.6362
53.7385
53.8418
53.9462
54.0515
54.1578
54.2651
54.3731
54.4818
54.5915
54.7019
54.8126
54.9238
55.0355
55.1477
55.2602
55.3726
55.4852
55.5981
55.711
55.8236
55.9359
56.0484
56.1607
56.2725
56.3837
56.495
56.606
56.7164
56.8262
56.9358
57.0447
57.1528
57.2602
57.3671
57.4733
57.5786
57.6828
57.7863
57.8897
57.9958
58.1116
58.2355
58.3611
58.4888
58.6172
58.7459
58.8741
59.0012
59.1267
59.2504
59.3725
59.4928
59.6109
59.727
59.8413
59.9535
60.0635
60.1714
60.2772
60.3807
60.4821
60.5812
60.678
60.7724
60.8644
60.9541
61.0413
61.1258
61.2074
61.2861
61.3619
61.4345
61.5038
61.5696
61.632
61.6908
61.7462
61.798
61.8465
61.8916
61.9333
61.9718
62.007
62.0389
62.0679
62.094
62.1177
62.139
62.1582
62.1756
62.1915
62.2063
62.22
62.2333
62.2465
62.2597
62.2731
62.2871
62.3023
62.3184
62.3358
62.3547
62.3757
62.3987
62.4236
62.4506
62.48
62.5119
62.546
62.5818
62.6192
62.6587
62.7006
62.7436
62.7873
62.8325
62.88
62.9272
62.9742
63.0221
63.0707
63.1184
63.1654
63.2119
63.2578
63.3027
63.3466
63.3892
63.4303
63.4703
63.5089
63.5459
63.5813
63.6153
63.6478
63.6784
63.707
63.7341
63.7597
63.7836
63.8059
63.827
63.8466
63.8646
63.8808
63.8955
63.9086
63.9197
63.929
63.9364
63.9418
63.9452
63.9466
63.9464
63.9442
63.9401
63.9343
63.9271
63.9182
63.9075
63.8955
63.8826
63.8682
63.8524
63.8356
63.8181
63.7998
63.7804
63.7603
63.74
63.7189
63.6971
63.6752
63.6533
63.6309
63.608
63.5856
63.5635
63.5413
63.5193
63.4978
63.4766
63.456
63.4358
63.4163
63.3974
63.3795
63.3625
63.3464
63.3313
63.3176
63.3057
63.2956
63.2876
63.2818
63.2783
63.2775
63.2793
63.2839
63.2909
63.3004
63.3128
63.3287
63.348
63.3699
63.394
63.4213
63.4519
63.4855
63.521
63.5588
63.5998
63.6438
63.6902
63.7385
63.7896
63.8438
63.9007
63.9591
64.0194
64.083
64.1491
64.215
64.2806
64.3479
64.4179
64.4896
64.562
64.6358
64.7114
64.7876
64.8631
64.9385
65.0149
65.0915
65.1674
65.2429
65.3182
65.3925
65.4656
65.5379
65.6097
65.6806
65.7501
65.8181
65.8843
65.9485
66.011
66.0722
66.1323
66.191
66.2479
66.3032
66.3567
66.4082
66.4575
66.5045
66.5492
66.5917
66.6325
66.6721
66.7104
66.7474
66.7825
66.8158
66.8473
66.8766
66.9031
66.9271
66.9489
66.9687
66.9857
67
67.0114
67.0194
67.0235
67.024
67.021
67.0143
67.0039
66.9892
66.9695
66.945
66.917
66.8853
66.8495
66.8086
66.7631
66.7143
66.6622
66.6062
66.5457
66.4811
66.4142
66.3472
66.2796
66.2105
66.14
66.0688
65.9978
65.9266
65.8544
65.7818
65.7095
65.6368
65.5644
65.4925
65.4191
65.3457
65.2746
65.2052
65.1368
65.0694
65.0039
64.9401
64.877
64.8131
64.749
64.6864
64.626
64.5674
64.5106
64.4565
64.4047
64.3548
64.3064
64.2591
64.2128
64.1678
64.1246
64.0839
64.0459
64.01
63.976
63.9441
63.9144
63.887
63.8609
63.8362
63.8134
63.7936
63.778
63.7673
63.7612
63.7594
63.7617
63.7684
63.779
63.7936
63.8136
63.8423
63.8903
63.9679
64.0505
64.1416
64.2417
64.3514
64.4698
64.5964
64.7321
64.878
65.035
65.2027
65.3808
65.5691
65.7668
65.9742
66.1905
66.415
66.6471
66.8871
67.1355
67.3925
67.6572
67.9282
68.2046
68.4865
68.774
69.0672
69.3665
69.6723
69.9849
70.3035
70.6265
70.9521
71.2796
71.6081
71.9375
72.2687
72.5964
72.9136
73.2157
73.5012
73.7707
74.0236
74.2583
74.4737
74.6706
74.8499
75.0102
75.1494
75.2662
75.3611
75.4363
75.4946
75.5381
75.5681
75.5854
75.5929
75.5943
75.5932
75.5914
75.59
75.5898
75.5938
75.6021
75.6155
75.6303
75.6437
75.6554
75.6637
75.6667
75.6646
75.6576
75.6464
75.6323
75.6167
75.6002
75.5847
75.5707
75.5541
75.529
75.4914
75.4399
75.3753
75.2964
75.2005
75.0847
74.9484
74.795
74.6313
74.4641
74.2983
74.1326
73.963
73.7859
73.6016
73.4084
73.2055
72.9949
72.7835
72.5725
72.3569
72.1376
71.9168
71.6923
71.4628
71.2288
70.9932
70.7584
70.5238
70.2884
70.0541
69.821
69.5876
69.3529
69.1197
68.8875
68.6544
68.4176
68.1823
67.9481
67.7142
67.4816
67.2524
67.0275
66.8055
66.5845
66.3647
66.1476
65.9345
65.7263
65.5253
65.3341
65.1531
64.9807
64.8153
64.6564
64.5038
64.3568
64.2149
64.0785
63.948
63.8227
63.7012
63.5831
63.4687
63.3582
63.2513
63.1476
63.0472
62.95
62.8549
62.7607
62.6668
62.5727
62.4777
62.3825
62.2869
62.1908
62.0946
61.9978
61.9009
61.8046
61.7089
61.614
61.5201
61.428
61.3386
61.2504
61.1611
61.0681
60.9722
60.8739
60.7743
60.6743
60.5754
60.4792
60.3859
60.2941
60.2027
60.1112
60.0204
59.9312
59.8434
59.7568
59.672
59.5903
59.513
59.44
59.3696
59.3009
59.2346
59.1715
59.1096
59.0454
58.9809
58.9227
58.8691
58.8169
58.7648
58.7156
58.6704
58.628
58.5868
58.5464
58.5051
58.4561
58.406
58.3604
58.3164
58.2727
58.231
58.1918
58.1535
58.1135
58.0716
58.0266
57.975
57.9201
57.8639
57.804
57.7413
57.6795
57.6154
57.5394
57.4536
57.3661
57.2777
57.1826
57.0656
56.9436
56.8273
56.7099
56.5822
56.4565
56.3414
56.228
56.1046
55.9965
55.9028
55.8097
55.6845
55.5622
55.4472
55.3322
55.1897
55.0524
54.9218
54.7875
54.6364
54.4956
54.3586
54.2188
54.0817
53.9392
53.7932
53.6483
53.5035
53.3534
53.2032
53.034
52.8669
52.7078
52.5511
52.3977
52.2594
52.1264
51.987
51.8527
51.7296
51.6119
51.496
51.3946
51.3088
51.2314
51.1746
51.1354
51.129
51.1282
51.1495
51.2039
51.29
51.3986
51.5178
51.6486
51.8166
52.0268
52.2412
52.4502
52.6789
52.9367
53.1886
53.4148
53.6408
53.8865
54.127
54.3309
54.5299
54.7356
54.9474
55.1425
55.3274
55.5246
55.7457
55.9586
56.1422
56.3271
56.5255
56.738
56.9306
57.1109
57.2988
57.4989
57.6919
57.8757
58.0634
58.2623
58.4548
58.6293
58.8096
59.0016
59.1891
59.3658
59.5437
59.7262
59.9133
60.0979
60.2791
60.4624
60.6483
60.8295
61.0119
61.1988
61.3917
61.5829
61.7703
61.9603
62.1557
62.3513
62.5452
62.7392
62.9345
63.1333
63.3328
63.531
63.731
63.9333
64.1354
64.3377
64.5413
64.7481
64.955
65.1579
65.3648
65.5776
65.7953
66.0192
66.2504
66.495
66.7639
67.049
67.3361
67.6229
67.9166
68.2207
68.5306
68.8358
69.1394
69.4423
69.7491
70.0643
70.385
70.7053
71.0246
71.3463
71.6698
71.9953
72.3256
72.663
73.0075
73.3584
73.7152
74.0789
74.452
74.8349
75.2245
75.6181
76.0167
76.4228
76.8364
77.2561
77.6842
78.1234
78.5705
79.0198
79.4727
79.9368
80.4166
80.9077
81.404
81.9073
82.4227
82.9485
83.4787
84.0138
84.5575
85.1109
85.6693
86.2315
86.7988
87.3711
87.9482
88.5304
89.1152
89.6994
90.2833
90.8673
91.452
92.0375
92.6203
93.1914
93.7552
94.3193
94.8936
95.4742
96.0219
96.5454
97.0621
97.5759
98.0878
98.599
99.1106
99.6223
100.132
100.635
101.134
101.63
102.127
102.63
103.125
103.574
103.983
104.358
104.699
105.014
105.302
105.563
105.818
106.082
106.375
106.714
107.129
107.639
108.238
108.908
109.649
110.477
111.404
112.419
113.374
114.087
114.595
115.014
115.44
115.92
116.432
116.735
116.863
116.981
117.163
117.494
118.025
118.757
119.664
120.714
121.885
123.179
124.622
126.227
127.992
129.92
131.965
134.017
136.017
138.043
140.197
142.545
145.097
147.834
150.719
153.77
157.074
160.567
163.461
165.516
166.868
167.464
167.432
166.932
165.707
163.632
160.663
156.861
152.317
147.182
141.685
136.153
130.893
125.987
121.282
116.826
113.021
110.12
108.097
106.706
105.74
105.105
104.818
104.856
105.223
105.893
106.749
107.729
108.832
110.156
111.745
113.535
115.426
117.37
119.292
120.823
121.454
121.168
119.549
116.17
111.313
105.98
101.197
96.8362
93.0768
89.6252
86.4414
83.4479
80.7478
78.3004
76.0515
74.2432
73.1019
72.5807
72.5245
72.3576
72.1212
71.9697
71.8985
71.878
72.0112
72.3552
72.9892
73.8658
74.9067
76.1184
77.2703
78.0537
78.6758
79.3844
80.422
81.584
82.7008
83.7628
84.8223
85.9077
86.9602
87.8702
88.3883
88.7953
89.746
90.8047
92.0724
93.3285
94.4345
95.4182
96.3642
97.3352
98.679
100.976
104.687
108.494
111.591
114.635
117.415
119.791
121.729
123.221
124.256
124.837
125.018
124.437
123.337
122.353
121.976
122.13
122.82
124.172
126.983
131.971
135.846
137.268
137.523
138.131
138.994
139.504
139.736
139.806
139.634
139.094
138.741
138.703
139.248
141.244
145.39
151.377
156.126
158.676
159.399
158.994
156.639
152.659
149.142
146.158
143.442
140.86
138.508
136.709
135.704
135.38
135.413
135.552
135.559
135.476
135.276
134.98
134.689
134.392
134.028
133.595
133.037
132.415
131.882
131.523
131.342
131.298
131.32
131.388
131.538
131.876
132.61
134.055
136.648
140.658
144.169
146.248
147.063
147.177
146.832
146.39
146.258
146.33
146.816
147.994
150.026
152.243
153.823
154.669
154.915
154.729
153.557
151.281