/*--------------------------------*- C++ -*----------------------------------*\
| =========                 |                                                 |
| \\      /  F ield         | OpenFOAM: The Open Source CFD Toolbox           |
|  \\    /   O peration     | Version:  v1812                                 |
|   \\  /    A nd           | Web:      www.OpenFOAM.com                      |
|    \\/     M anipulation  |                                                 |
\*---------------------------------------------------------------------------*/
FoamFile
{
    version     2.0;
    format      ascii;
    class       volScalarField;
    location    "300";
    object      p;
}
// * * * * * * * * * * * * * * * * * * * * * * * * * * * * * * * * * * * * * //

dimensions      [1 -1 -2 0 0 0 0];


internalField   nonuniform List<scalar> 
366376
(
3690.29
3690.64
3690.93
3691.18
3691.39
3691.57
3691.71
3691.84
3691.95
3692.05
3692.14
3692.22
3692.31
3692.39
3692.46
3692.54
3692.62
3692.7
3692.78
3692.86
3692.95
3693.03
3693.12
3693.2
3693.29
3693.38
3693.48
3693.57
3693.67
3693.77
3693.87
3693.97
3694.07
3694.18
3694.29
3694.4
3694.51
3694.62
3694.74
3694.85
3694.97
3695.1
3695.22
3695.34
3695.47
3695.6
3695.73
3695.87
3696.01
3696.15
3696.29
3696.43
3696.58
3696.73
3696.88
3697.03
3697.19
3697.35
3697.51
3697.68
3697.84
3698.02
3698.19
3698.37
3698.55
3698.73
3698.91
3699.1
3699.29
3699.49
3699.69
3699.89
3700.1
3700.31
3700.52
3700.74
3700.96
3701.18
3701.41
3701.64
3701.87
3702.11
3702.36
3702.6
3702.86
3703.11
3703.37
3703.64
3703.91
3704.18
3704.46
3704.75
3705.04
3705.33
3705.63
3705.93
3706.24
3706.56
3706.88
3707.2
3707.54
3707.87
3708.22
3708.57
3708.92
3709.29
3709.65
3710.03
3710.41
3710.8
3711.2
3711.6
3712.01
3712.43
3712.85
3713.29
3713.73
3714.18
3714.64
3715.1
3715.58
3716.06
3716.56
3717.06
3717.57
3718.09
3718.63
3719.17
3719.72
3720.28
3720.86
3721.44
3722.04
3722.65
3723.27
3723.9
3724.55
3725.21
3725.88
3726.56
3727.26
3727.98
3728.7
3729.45
3730.2
3730.98
3731.76
3732.57
3733.39
3734.23
3735.08
3735.96
3736.85
3737.76
3738.69
3739.64
3740.6
3741.59
3742.6
3743.64
3744.69
3745.77
3746.88
3748.01
3749.17
3750.36
3751.57
3752.82
3754.1
3755.41
3756.76
3758.13
3759.55
3760.99
3762.48
3764
3765.55
3767.15
3768.78
3770.45
3772.16
3773.91
3775.7
3777.54
3779.41
3781.33
3783.3
3785.3
3787.36
3789.46
3791.6
3793.8
3796.04
3798.33
3800.68
3803.07
3805.52
3808.03
3810.58
3813.19
3815.86
3818.58
3821.36
3824.2
3827.09
3830.04
3833.05
3836.12
3839.24
3842.42
3845.65
3848.93
3852.26
3855.62
3859
3862.34
3865.48
3868.52
3865.74
3867.67
3870.07
3873.01
3876.29
3879.86
3883.67
3887.7
3891.93
3896.33
3900.9
3905.62
3910.49
3915.48
3920.6
3925.82
3931.14
3936.55
3942.06
3947.67
3953.37
3959.15
3965.03
3970.98
3977.01
3983.11
3989.28
3995.53
4001.84
4008.22
4014.66
4021.16
4027.73
4034.36
4041.06
4047.82
4054.65
4061.54
4068.49
4075.51
4082.58
4089.72
4096.91
4104.17
4111.48
4118.85
4126.27
4133.75
4141.28
4148.86
4156.49
4164.17
4171.89
4179.66
4187.47
4195.32
4203.21
4211.14
4219.1
4227.1
4235.12
4243.18
4251.26
4259.36
4267.48
4275.62
4283.78
4291.95
4300.13
4308.31
4316.5
4324.69
4332.88
4341.07
4349.24
4357.41
4365.56
4373.7
4381.81
4389.9
4397.96
4406
4414
4421.96
4429.88
4437.75
4445.58
4453.36
4461.08
4468.75
4476.35
4483.89
4491.36
4498.75
4506.08
4513.32
4520.48
4527.56
4534.55
4541.44
4548.24
4554.94
4561.54
4568.03
4574.42
4580.69
4586.84
4592.88
4598.8
4604.59
4610.26
4615.79
4621.19
4626.45
4631.58
4636.56
4641.4
4646.09
4650.62
4655
4659.22
4663.28
4667.17
4670.9
4674.45
4677.83
4681.04
4684.07
4686.92
4689.6
4692.1
4694.43
4696.57
4698.54
4700.32
4701.92
4703.32
4704.76
4706.39
4707.79
4708.82
4709.62
4710.18
4710.54
4710.7
4710.67
4710.44
4710.03
4709.44
4708.66
4707.7
4706.56
4705.24
4703.74
4702.06
4700.22
4698.19
4696
4693.63
4691.1
4688.4
4685.53
4682.49
4679.3
4675.94
4672.43
4668.76
4664.93
4660.96
4656.83
4652.56
4648.14
4643.58
4638.89
4634.05
4629.08
4623.98
4618.75
4613.4
4607.93
4602.33
4596.62
4590.8
4584.87
4578.83
4572.69
4566.45
4560.12
4553.69
4547.17
4540.57
4533.89
4527.12
4520.29
4513.38
4506.4
4499.36
4492.26
4485.11
4477.89
4470.63
4463.33
4455.98
4448.59
4441.16
4433.71
4426.22
4418.71
4411.18
4403.63
4396.06
4388.48
4380.9
4373.31
4365.72
4358.13
4350.54
4342.97
4335.4
4327.85
4320.32
4312.81
4305.33
4297.87
4290.44
4283.05
4275.68
4268.35
4261.06
4253.8
4246.58
4239.39
4232.24
4225.12
4218.05
4211
4204
4197.04
4190.12
4183.25
4176.42
4169.63
4162.89
4156.18
4149.52
4142.91
4136.33
4129.81
4123.34
4116.91
4110.54
4104.23
4097.97
4091.76
4085.62
4079.53
4073.5
4067.53
4061.62
4055.77
4049.98
4044.25
4038.57
4032.95
4027.39
4021.88
4016.42
4011.02
4005.65
4000.34
3995.06
3989.81
3984.57
3979.63
3971.5
3966.62
3961.66
3956.87
3952.2
3947.62
3943.15
3938.75
3934.45
3930.22
3926.07
3921.99
3917.98
3914.05
3910.18
3906.38
3902.65
3898.99
3895.39
3891.85
3888.37
3884.96
3881.61
3878.32
3875.08
3871.91
3868.79
3865.73
3862.72
3859.77
3856.87
3854.03
3851.24
3848.5
3845.81
3843.17
3840.58
3838.04
3835.54
3833.1
3830.7
3828.34
3826.03
3823.77
3821.55
3819.37
3817.23
3815.13
3813.08
3811.06
3809.08
3807.14
3805.24
3803.38
3801.55
3799.76
3798.01
3796.29
3794.6
3792.95
3791.33
3789.74
3788.19
3786.66
3785.17
3783.72
3782.2
3780.81
3779.44
3778.09
3776.77
3775.48
3774.21
3772.97
3771.75
3770.56
3769.39
3768.25
3767.13
3766.03
3764.96
3763.91
3762.88
3761.87
3760.88
3759.91
3758.97
3758.04
3757.13
3756.24
3755.37
3754.52
3753.68
3752.87
3752.07
3751.28
3750.51
3749.76
3749.03
3748.31
3747.6
3746.91
3746.24
3745.58
3744.93
3744.3
3743.68
3743.07
3742.48
3741.89
3741.33
3740.77
3740.22
3739.69
3739.17
3738.66
3738.16
3737.67
3737.19
3736.72
3736.26
3735.81
3735.37
3734.94
3734.52
3734.11
3733.71
3733.31
3732.93
3732.55
3732.18
3731.82
3731.46
3731.12
3730.78
3730.45
3730.12
3729.81
3729.5
3729.19
3728.9
3728.61
3728.32
3728.04
3727.77
3727.51
3727.25
3726.99
3726.74
3726.5
3726.26
3726.03
3725.8
3725.58
3725.36
3725.14
3724.93
3724.73
3724.53
3724.34
3724.14
3723.96
3723.77
3723.6
3723.42
3723.25
3723.08
3722.92
3722.76
3722.6
3722.45
3722.3
3722.15
3722.01
3721.87
3721.74
3721.6
3721.47
3721.34
3721.22
3721.1
3720.98
3720.86
3720.75
3720.63
3720.53
3720.42
3720.32
3720.21
3720.11
3720.02
3719.92
3719.83
3719.74
3719.65
3719.56
3719.48
3719.4
3719.31
3719.24
3719.16
3719.08
3719.01
3718.94
3718.87
3718.8
3718.73
3718.66
3718.6
3718.54
3718.48
3718.42
3718.36
3718.3
3718.25
3718.19
3718.14
3718.08
3718.03
3717.98
3717.94
3717.89
3717.84
3717.8
3717.75
3717.71
3717.66
3717.62
3717.58
3717.54
3717.5
3717.46
3717.43
3717.39
3717.36
3717.32
3717.29
3717.25
3717.22
3717.19
3717.16
3717.13
3717.1
3717.07
3717.04
3717.02
3716.99
3716.97
3716.94
3716.92
3716.89
3716.87
3716.85
3716.83
3716.81
3716.79
3716.77
3716.75
3716.73
3716.71
3716.69
3716.68
3716.66
3716.65
3716.64
3716.62
3716.61
3716.6
3716.59
3716.58
3716.57
3716.56
3716.55
3716.54
3716.53
3716.53
3716.52
3716.52
3716.51
3716.51
3716.5
3716.5
3716.5
3716.5
3716.5
3716.5
3716.5
3716.5
3716.5
3716.5
3716.51
3716.51
3716.52
3716.52
3716.53
3716.53
3716.54
3716.55
3716.56
3716.57
3716.58
3716.59
3716.6
3716.62
3716.63
3716.65
3716.66
3716.68
3716.69
3716.71
3716.73
3716.75
3716.76
3716.78
3716.8
3716.83
3716.85
3716.87
3716.89
3716.92
3716.94
3716.96
3716.99
3717.01
3717.04
3717.06
3717.09
3717.11
3717.14
3717.17
3717.19
3717.22
3717.24
3717.27
3717.29
3717.31
3717.34
3717.36
3717.38
3717.39
3717.41
3717.43
3717.44
3717.45
3717.46
3717.46
3717.47
3717.46
3717.46
3717.45
3717.44
3717.42
3717.4
3717.37
3717.34
3717.3
3717.25
3717.19
3717.13
3717.07
3716.99
3716.9
3716.8
3716.69
3716.57
3716.43
3716.28
3716.12
3715.94
3715.75
3715.55
3715.33
3715.09
3714.84
3714.57
3714.28
3713.97
3713.65
3713.3
3712.93
3712.55
3712.14
3711.71
3711.27
3710.8
3710.31
3709.79
3709.26
3708.71
3708.13
3707.54
3706.93
3706.3
3705.65
3704.98
3704.3
3703.59
3702.86
3702.11
3701.33
3700.54
3699.72
3698.88
3698.02
3697.13
3696.23
3695.32
3694.38
3693.44
3692.48
3691.5
3690.52
3689.53
3688.53
3687.53
3686.52
3685.51
3684.5
3683.49
3682.48
3681.47
3680.47
3679.48
3678.49
3677.51
3676.54
3675.59
3674.65
3673.72
3672.81
3671.91
3671.04
3670.18
3669.35
3668.54
3667.75
3666.99
3666.25
3665.54
3664.86
3664.2
3663.58
3662.99
3662.43
3661.9
3661.41
3660.95
3660.53
3660.14
3659.79
3659.47
3659.2
3658.96
3658.76
3658.6
3658.47
3658.39
3658.34
3658.34
3658.37
3658.44
3658.54
3658.69
3658.87
3659.08
3659.33
3659.61
3659.92
3660.26
3660.63
3661.03
3661.46
3661.91
3662.39
3662.89
3663.41
3663.95
3664.5
3665.08
3665.66
3666.26
3666.87
3667.49
3668.12
3668.75
3669.39
3670.03
3670.67
3671.31
3671.95
3672.58
3673.22
3673.84
3674.46
3675.07
3675.67
3676.26
3676.84
3677.41
3677.96
3678.5
3679.03
3679.54
3680.03
3680.51
3680.97
3681.41
3681.84
3682.25
3682.64
3683.02
3683.37
3683.71
3684.03
3684.34
3684.62
3684.89
3685.14
3685.38
3685.59
3685.8
3685.98
3686.15
3686.31
3686.45
3686.58
3686.69
3686.79
3686.88
3686.96
3687.03
3687.09
3687.14
3687.18
3687.22
3687.25
3687.27
3687.3
3687.32
3687.33
3687.35
3687.37
3687.4
3687.42
3687.45
3687.49
3687.53
3687.59
3687.65
3687.72
3687.81
3687.9
3688.01
3688.14
3688.28
3688.44
3688.61
3688.81
3689.02
3689.25
3689.5
3689.77
3690.06
3690.37
3690.7
3691.06
3691.43
3691.83
3692.25
3692.69
3693.16
3693.64
3694.15
3694.68
3695.23
3695.8
3696.39
3697
3697.62
3698.27
3698.94
3699.62
3700.32
3701.03
3701.76
3702.5
3703.26
3704.02
3704.8
3705.58
3706.37
3707.17
3707.97
3708.77
3709.57
3710.38
3711.18
3711.98
3712.77
3713.55
3714.33
3715.1
3715.86
3716.6
3717.33
3718.04
3718.74
3719.42
3720.08
3720.71
3721.33
3721.92
3722.48
3723.03
3723.54
3724.03
3724.49
3724.93
3725.33
3725.71
3726.07
3726.39
3726.69
3726.96
3727.2
3727.42
3727.61
3727.77
3727.92
3728.04
3728.14
3728.22
3728.28
3728.33
3728.35
3728.37
3728.37
3728.36
3728.33
3728.3
3728.27
3728.22
3728.17
3728.12
3728.07
3728.02
3727.97
3727.92
3727.88
3727.84
3727.8
3727.78
3727.76
3727.75
3727.75
3727.77
3727.79
3727.83
3727.88
3727.95
3728.03
3728.13
3728.25
3728.39
3728.54
3728.71
3728.91
3729.12
3729.36
3729.62
3729.9
3730.21
3730.54
3730.9
3731.28
3731.69
3732.13
3732.59
3733.09
3733.61
3734.16
3734.74
3735.34
3735.98
3736.65
3737.35
3738.08
3738.84
3739.62
3740.44
3741.29
3742.17
3743.08
3744.02
3744.98
3745.98
3747.01
3748.06
3749.14
3750.26
3751.4
3752.56
3753.76
3754.98
3756.23
3757.51
3758.81
3760.15
3761.51
3762.89
3764.31
3765.76
3767.23
3768.73
3770.26
3771.83
3773.42
3775.04
3776.7
3778.39
3780.12
3781.88
3783.68
3785.52
3787.4
3789.31
3791.27
3793.27
3795.32
3797.41
3799.54
3801.73
3803.96
3806.24
3808.58
3810.96
3813.4
3815.89
3818.43
3821.03
3823.69
3826.39
3829.16
3831.98
3834.86
3837.79
3840.78
3843.82
3846.92
3850.07
3853.28
3856.54
3859.85
3863.22
3866.64
3870.1
3873.62
3877.19
3880.8
3884.46
3888.17
3891.92
3895.71
3899.55
3903.43
3907.35
3911.3
3915.3
3919.33
3923.41
3927.51
3931.66
3935.84
3940.05
3944.3
3948.58
3952.89
3957.24
3961.63
3966.04
3970.49
3974.98
3979.5
3984.05
3988.65
3993.27
3997.94
4002.64
4007.38
4012.16
4016.98
4021.84
4026.74
4031.69
4036.68
4041.72
4046.8
4051.93
4057.11
4062.34
4067.61
4072.94
4078.32
4083.75
4089.24
4094.78
4100.38
4106.03
4111.73
4117.5
4123.32
4129.2
4135.14
4141.13
4147.19
4153.3
4159.47
4165.7
4171.98
4178.33
4184.73
4191.18
4197.7
4204.26
4210.89
4217.56
4224.29
4231.07
4237.9
4244.78
4251.7
4258.67
4265.68
4272.74
4279.83
4286.96
4294.13
4301.34
4308.56
4315.82
4323.1
4330.41
4337.73
4345.07
4352.42
4359.78
4367.15
4374.52
4381.89
4389.26
4396.63
4403.98
4411.33
4418.65
4425.96
4433.24
4440.5
4447.72
4454.92
4462.08
4469.2
4476.27
4483.31
4490.29
4497.22
4504.1
4510.92
4517.68
4524.38
4531.01
4537.58
4544.07
4550.5
4556.84
4563.11
4569.3
4575.41
4581.43
4587.36
4593.21
4598.96
4604.62
4610.19
4615.66
4621.02
4626.29
4631.45
4636.51
4641.45
4646.29
4651.02
4655.63
4660.12
4664.5
4668.75
4672.89
4676.9
4680.78
4684.54
4688.17
4691.67
4695.03
4698.25
4701.34
4704.3
4707.11
4709.77
4712.3
4714.67
4716.9
4718.99
4720.91
4722.69
4724.31
4725.78
4727.09
4728.25
4729.25
4730.09
4730.77
4731.29
4731.64
4731.82
4731.84
4731.7
4731.39
4730.9
4730.25
4729.44
4728.45
4727.3
4725.98
4724.48
4722.82
4721
4719
4716.83
4714.5
4712
4709.34
4706.5
4703.51
4700.35
4697.02
4693.54
4689.89
4686.08
4682.12
4677.99
4673.72
4669.28
4664.7
4659.96
4655.07
4650.04
4644.86
4639.54
4634.07
4628.47
4622.73
4616.85
4610.85
4604.71
4598.44
4592.05
4585.54
4578.91
4572.17
4565.31
4558.34
4551.26
4544.09
4536.81
4529.44
4521.97
4514.42
4506.78
4499.06
4491.26
4483.4
4475.46
4467.46
4459.4
4451.29
4443.13
4434.92
4426.67
4418.39
4410.08
4401.74
4393.37
4385
4376.61
4368.21
4359.82
4351.43
4343.04
4334.67
4326.32
4318
4309.7
4301.43
4293.2
4285.01
4276.87
4268.78
4260.74
4252.76
4244.85
4236.99
4229.21
4221.5
4213.86
4206.3
4198.82
4191.43
4184.11
4176.89
4169.75
4162.7
4155.74
4148.88
4142.11
4135.43
4128.85
4122.36
4115.97
4109.68
4103.47
4097.37
4091.36
4085.45
4079.63
4073.9
4068.27
4062.72
4057.27
4051.92
4046.65
4041.47
4036.37
4031.37
4026.45
4021.61
4016.86
4012.2
4007.61
4003.1
3998.68
3994.33
3990.06
3985.86
3981.74
3977.69
3973.72
3969.81
3965.98
3962.21
3958.52
3954.88
3951.32
3947.82
3944.38
3941
3937.69
3934.43
3931.23
3928.09
3925.01
3921.98
3919.01
3916.09
3913.22
3910.41
3907.64
3904.92
3902.25
3899.62
3897.04
3894.5
3892
3889.54
3887.12
3884.74
3882.4
3880.09
3877.81
3875.56
3873.34
3871.15
3868.99
3866.85
3864.73
3862.63
3860.56
3858.5
3856.45
3854.42
3852.41
3850.4
3848.4
3846.42
3844.43
3842.46
3840.48
3838.51
3836.54
3834.57
3832.6
3830.63
3828.65
3826.67
3824.68
3822.69
3820.7
3818.69
3816.68
3814.67
3812.65
3810.62
3808.58
3806.54
3804.5
3802.44
3800.38
3798.32
3796.26
3794.19
3792.12
3790.05
3787.98
3785.91
3783.84
3781.77
3779.71
3777.66
3775.61
3773.57
3771.53
3769.51
3767.5
3765.51
3763.53
3761.56
3759.61
3757.68
3755.78
3753.89
3752.02
3750.18
3748.37
3746.58
3744.82
3743.1
3741.4
3739.73
3738.1
3736.5
3734.94
3733.42
3731.93
3730.49
3729.08
3727.71
3726.39
3725.11
3723.87
3722.68
3721.53
3720.43
3719.38
3718.37
3717.41
3716.49
3715.63
3714.82
3714.05
3713.33
3712.67
3712.05
3711.49
3710.98
3710.51
3710.1
3709.74
3709.43
3709.18
3708.97
3708.81
3708.71
3708.65
3708.65
3708.69
3708.78
3708.92
3709.1
3709.34
3709.61
3709.93
3710.29
3710.69
3711.14
3711.62
3712.13
3712.68
3713.27
3713.88
3714.53
3715.2
3715.89
3716.61
3717.35
3718.11
3718.89
3719.68
3720.48
3721.29
3722.11
3722.93
3723.75
3724.58
3725.4
3726.22
3727.03
3727.83
3728.62
3729.4
3730.16
3730.9
3731.62
3732.32
3732.99
3733.64
3734.26
3734.86
3735.42
3735.95
3736.45
3736.92
3737.35
3737.74
3738.1
3738.42
3738.7
3738.95
3739.16
3739.33
3739.46
3739.55
3739.6
3739.62
3739.6
3739.54
3739.44
3739.31
3739.15
3738.94
3738.7
3738.43
3738.12
3737.78
3737.41
3737
3736.56
3736.09
3735.59
3735.06
3734.5
3733.92
3733.3
3732.66
3731.98
3731.29
3730.56
3729.81
3729.04
3728.24
3727.41
3726.57
3725.7
3724.81
3723.9
3722.97
3722.02
3721.06
3720.07
3719.07
3718.05
3717.02
3715.98
3714.93
3713.86
3712.79
3711.71
3710.63
3709.54
3708.45
3707.36
3706.27
3705.19
3704.11
3703.04
3701.98
3700.94
3699.91
3698.9
3697.91
3696.94
3696
3695.08
3694.19
3693.34
3692.52
3691.73
3690.98
3690.27
3689.61
3688.98
3688.4
3687.86
3687.37
3686.93
3686.53
3686.19
3685.89
3685.64
3685.44
3685.29
3685.18
3685.13
3685.12
3685.16
3685.25
3685.39
3685.57
3685.79
3686.05
3686.36
3686.7
3687.09
3687.51
3687.97
3688.46
3688.99
3689.54
3690.13
3690.75
3691.39
3692.05
3692.75
3693.46
3694.19
3694.95
3695.72
3696.51
3697.31
3698.13
3698.96
3699.8
3700.65
3701.5
3702.37
3703.24
3704.12
3705
3705.88
3706.77
3707.65
3708.53
3709.41
3710.29
3711.16
3712.02
3712.88
3713.72
3714.56
3715.39
3716.2
3717
3717.79
3718.56
3719.31
3720.05
3720.76
3721.45
3722.12
3722.77
3723.39
3723.98
3724.55
3725.09
3725.6
3726.09
3726.53
3726.95
3727.34
3727.69
3728.01
3728.29
3728.54
3728.75
3728.93
3729.07
3729.18
3729.24
3729.28
3729.27
3729.23
3729.16
3729.05
3728.91
3728.73
3728.51
3728.27
3727.99
3727.68
3727.34
3726.98
3726.58
3726.16
3725.71
3725.24
3724.75
3724.23
3723.7
3723.14
3722.57
3721.99
3721.39
3720.78
3720.16
3719.53
3718.89
3718.25
3717.61
3716.96
3716.31
3715.67
3715.02
3714.38
3713.75
3713.12
3712.5
3711.88
3711.28
3710.69
3710.1
3709.54
3708.98
3708.44
3707.91
3707.4
3706.9
3706.41
3705.95
3705.49
3705.06
3704.64
3704.23
3703.84
3703.47
3703.11
3702.76
3702.43
3702.12
3701.81
3701.52
3701.24
3700.97
3700.72
3700.47
3700.24
3700.01
3699.79
3699.58
3699.38
3699.18
3698.99
3698.8
3698.61
3698.43
3698.26
3698.08
3697.9
3697.73
3697.56
3697.38
3697.2
3697.03
3696.85
3696.66
3696.47
3696.28
3696.09
3695.89
3695.69
3695.48
3695.26
3695.04
3694.82
3694.59
3694.35
3694.11
3693.87
3693.62
3693.36
3693.1
3692.83
3692.56
3692.29
3692.01
3691.73
3691.44
3691.16
3690.87
3690.58
3690.29
3690
3689.71
3689.43
3689.14
3688.86
3688.59
3688.32
3688.05
3687.79
3687.54
3687.29
3687.06
3686.84
3686.62
3686.42
3686.23
3686.06
3685.9
3685.76
3685.63
3685.52
3685.43
3685.36
3685.31
3685.28
3685.27
3685.28
3685.32
3685.38
3685.47
3685.58
3685.71
3685.88
3686.07
3686.28
3686.53
3686.8
3687.1
3687.42
3687.78
3688.16
3688.56
3689
3689.46
3689.95
3690.46
3691
3691.56
3692.15
3692.75
3693.38
3694.03
3694.7
3695.39
3696.09
3696.81
3697.55
3698.3
3699.06
3699.82
3700.6
3701.39
3702.18
3702.97
3703.77
3704.57
3705.37
3706.17
3706.96
3707.76
3708.54
3709.32
3710.09
3710.86
3711.61
3712.35
3713.08
3713.8
3714.51
3715.2
3715.87
3716.54
3717.18
3717.81
3718.42
3719.01
3719.59
3720.14
3720.68
3721.2
3721.69
3722.17
3722.63
3723.07
3723.49
3723.88
3724.26
3724.61
3724.95
3725.27
3725.56
3725.84
3726.09
3726.33
3726.55
3726.75
3726.93
3727.09
3727.24
3727.37
3727.49
3727.59
3727.68
3727.75
3727.81
3727.86
3727.9
3727.92
3727.94
3727.95
3727.95
3727.94
3727.92
3727.9
3727.87
3727.84
3727.8
3727.76
3727.72
3727.67
3727.62
3727.57
3727.51
3727.46
3727.4
3727.35
3727.29
3727.23
3727.18
3727.12
3727.06
3727.01
3726.96
3726.9
3726.85
3726.8
3726.76
3726.71
3726.66
3726.62
3726.58
3726.54
3726.5
3726.47
3726.44
3726.41
3726.38
3726.36
3726.34
3726.32
3726.31
3726.3
3726.3
3726.3
3726.31
3726.33
3726.35
3726.38
3726.41
3726.46
3726.51
3726.57
3726.65
3726.73
3726.82
3726.93
3727.04
3727.18
3727.32
3727.48
3727.65
3727.84
3728.04
3728.26
3728.5
3728.75
3729.02
3729.31
3729.62
3729.95
3730.29
3730.66
3731.05
3731.45
3731.88
3732.33
3732.8
3733.29
3733.8
3734.33
3734.89
3735.46
3736.06
3736.67
3737.3
3737.96
3738.63
3739.32
3740.02
3740.75
3741.49
3742.24
3743.01
3743.8
3744.59
3745.4
3746.23
3747.06
3747.9
3748.75
3749.61
3750.48
3751.35
3752.23
3753.11
3754
3754.89
3755.78
3756.67
3757.57
3758.47
3759.36
3760.26
3761.15
3762.05
3762.94
3763.83
3764.72
3765.61
3766.49
3767.38
3768.26
3769.14
3770.02
3770.9
3771.78
3772.66
3773.54
3774.43
3775.32
3776.21
3777.11
3778.02
3778.94
3779.87
3780.81
3781.76
3782.73
3783.72
3784.73
3785.76
3786.81
3787.89
3789
3790.14
3791.31
3792.51
3793.75
3795.03
3796.35
3797.71
3799.12
3800.58
3802.09
3803.64
3805.26
3806.92
3808.65
3810.43
3812.27
3814.18
3816.15
3818.19
3820.29
3822.46
3824.7
3827.01
3829.39
3831.85
3834.38
3836.98
3839.65
3842.41
3845.23
3848.14
3851.11
3854.17
3857.3
3860.51
3863.79
3867.15
3870.59
3874.1
3877.69
3881.35
3885.09
3888.9
3892.79
3896.75
3900.78
3904.89
3909.07
3913.32
3917.64
3922.04
3926.5
3931.04
3935.65
3940.32
3945.07
3949.89
3954.77
3959.72
3964.76
3969.85
3975
3980.23
3985.52
3990.87
3996.3
4001.78
4007.34
4012.95
4018.64
4024.38
4030.19
4036.07
4042
4048
4054.06
4060.19
4066.37
4072.62
4078.93
4085.3
4091.73
4098.21
4104.76
4111.37
4118.03
4124.75
4131.52
4138.35
4145.24
4152.17
4159.16
4166.21
4173.3
4180.44
4187.62
4194.85
4202.13
4209.45
4216.81
4224.21
4231.64
4239.11
4246.62
4254.15
4261.71
4269.3
4276.92
4284.55
4292.21
4299.88
4307.56
4315.26
4322.96
4330.67
4338.38
4346.1
4353.81
4361.51
4369.21
4376.9
4384.57
4392.23
4399.86
4407.48
4415.06
4422.62
4430.15
4437.64
4445.1
4452.51
4459.88
4467.2
4474.48
4481.69
4488.86
4495.96
4503
4509.97
4516.88
4523.72
4530.48
4537.16
4543.77
4550.29
4556.72
4563.07
4569.33
4575.49
4581.56
4587.53
4593.4
4599.17
4604.82
4610.38
4615.82
4621.14
4626.36
4631.45
4636.43
4641.29
4646.02
4650.62
4655.1
4659.45
4663.67
4667.76
4671.71
4675.53
4679.21
4682.75
4686.15
4689.42
4692.53
4695.51
4698.34
4701.03
4703.57
4705.97
4708.21
4710.31
4712.27
4714.08
4715.74
4717.25
4718.62
4719.84
4720.92
4721.87
4722.67
4723.36
4723.92
4724.37
4724.74
4725.07
4725.39
4726.29
4725.36
4720.08
4715.18
4710.84
4706.53
4702.14
4697.63
4693
4688.24
4683.35
4678.34
4673.19
4667.91
4662.49
4656.94
4651.25
4645.43
4639.48
4633.39
4627.17
4620.81
4614.32
4607.71
4600.96
4594.09
4587.09
4579.97
4572.72
4565.35
4557.86
4550.24
4542.51
4534.67
4526.7
4518.63
4510.44
4502.15
4493.74
4485.23
4476.62
4467.9
4459.09
4450.17
4441.16
4432.06
4422.87
4413.59
4404.23
4394.78
4385.25
4375.65
4365.97
4356.22
4346.39
4336.5
4326.55
4316.54
4306.47
4296.34
4286.16
4275.94
4265.66
4255.35
4244.99
4234.6
4224.18
4213.72
4203.24
4192.73
4182.2
4171.65
4161.08
4150.5
4139.92
4129.32
4118.73
4108.13
4097.53
4086.94
4076.35
4065.78
4055.21
4044.67
4034.13
4023.62
4013.13
4002.67
3992.23
3981.82
3971.44
3961.1
3950.79
3940.51
3930.27
3920.08
3909.92
3899.81
3889.74
3879.72
3869.75
3859.82
3849.95
3840.12
3830.35
3820.64
3810.98
3801.37
3791.82
3782.33
3772.9
3763.54
3754.23
3744.98
3735.8
3726.68
3717.63
3708.64
3699.72
3690.87
3682.08
3673.37
3664.73
3656.15
3647.65
3639.23
3630.87
3622.59
3614.39
3606.26
3598.21
3590.23
3582.33
3574.51
3566.77
3559.11
3551.53
3544.03
3536.6
3529.26
3522
3514.82
3507.72
3500.71
3493.77
3486.92
3480.14
3473.45
3466.84
3460.31
3453.87
3447.5
3441.22
3435.02
3428.9
3422.86
3416.9
3411.02
3405.22
3399.51
3393.87
3388.31
3382.84
3377.44
3372.12
3366.88
3361.72
3356.63
3351.63
3346.7
3341.84
3337.06
3332.36
3327.73
3323.17
3318.69
3314.27
3309.93
3305.66
3301.45
3297.31
3293.23
3289.22
3285.27
3281.39
3277.56
3273.78
3270.06
3266.4
3262.78
3259.22
3255.7
3252.22
3248.79
3245.4
3242.04
3238.72
3235.44
3232.18
3228.96
3225.76
3222.59
3219.45
3216.32
3213.22
3210.13
3207.06
3204.01
3200.97
3197.94
3194.92
3191.91
3188.91
3185.91
3182.92
3179.93
3176.95
3173.97
3170.99
3168.01
3165.02
3162.04
3159.05
3156.06
3153.06
3150.05
3147.04
3144.02
3140.99
3137.95
3134.9
3131.84
3128.76
3125.68
3122.58
3119.48
3116.35
3113.22
3110.07
3106.91
3103.73
3100.55
3097.35
3094.13
3090.91
3087.67
3084.43
3081.17
3077.9
3074.63
3071.35
3068.06
3064.77
3061.47
3058.17
3054.86
3051.56
3048.25
3044.94
3041.64
3038.34
3035.04
3031.75
3028.46
3025.18
3021.91
3018.64
3015.38
3012.13
3008.89
3005.66
3002.44
2999.23
2996.03
2992.84
2989.66
2986.49
2983.33
2980.18
2977.04
2973.92
2970.8
2967.7
2964.6
2961.52
2958.45
2955.38
2952.33
2949.29
2946.25
2943.23
2940.21
2937.21
2934.21
2931.22
2928.23
2925.25
2922.28
2919.31
2916.35
2913.39
2910.43
2907.47
2904.52
2901.56
2898.61
2895.65
2892.68
2889.72
2886.75
2883.77
2880.79
2877.8
2874.8
2871.8
2868.78
2865.76
2862.73
2859.69
2856.63
2853.57
2850.5
2847.41
2844.31
2841.21
2838.09
2834.96
2831.82
2828.67
2825.51
2822.34
2819.16
2815.98
2812.78
2809.57
2806.36
2803.14
2799.91
2796.67
2793.43
2790.18
2786.93
2783.67
2780.41
2777.15
2773.88
2770.62
2767.35
2764.08
2760.82
2757.55
2754.29
2751.04
2747.78
2744.54
2741.3
2738.07
2734.85
2731.63
2728.43
2725.24
2722.07
2718.9
2715.75
2712.62
2709.49
2706.39
2703.3
2700.23
2697.18
2694.14
2691.12
2688.12
2685.14
2682.17
2679.23
2676.3
2673.4
2670.51
2667.65
2664.8
2661.98
2659.18
2656.4
2653.65
2650.92
2648.21
2645.52
2642.86
2640.23
2637.62
2635.03
2632.47
2629.93
2627.42
2624.93
2622.46
2620.02
2617.6
2615.2
2612.83
2610.47
2608.13
2605.81
2603.51
2601.22
2598.95
2596.69
2594.44
2592.2
2589.97
2587.75
2585.53
2583.32
2581.12
2578.91
2576.71
2574.51
2572.3
2570.09
2567.88
2565.66
2563.43
2561.2
2558.95
2556.7
2554.43
2552.15
2549.86
2547.55
2545.23
2542.89
2540.54
2538.17
2535.78
2533.37
2530.94
2528.5
2526.03
2523.54
2521.03
2518.5
2515.94
2513.36
2510.76
2508.14
2505.49
2502.81
2500.12
2497.39
2494.64
2491.87
2489.06
2486.23
2483.37
2480.48
2477.56
2474.61
2471.62
2468.61
2465.56
2462.48
2459.36
2456.21
2453.03
2449.8
2446.54
2443.25
2439.92
2436.55
2433.15
2429.71
2426.23
2422.72
2419.18
2415.6
2411.99
2408.35
2404.68
2400.98
2397.26
2393.51
2389.73
2385.94
2382.12
2378.29
2374.44
2370.57
2366.7
2362.81
2358.91
2355.01
2351.1
2347.19
2343.27
2339.36
2335.45
2331.54
2327.64
2323.74
2319.85
2315.97
2312.1
2308.25
2304.4
2300.57
2296.76
2292.96
2289.18
2285.42
2281.68
2277.97
2274.27
2270.6
2266.95
2263.33
2259.74
2256.17
2252.64
2249.13
2245.66
2242.23
2238.82
2235.46
2232.13
2228.85
2225.6
2222.4
2219.24
2216.13
2213.07
2210.05
2207.08
2204.17
2201.3
2198.49
2195.73
2193.02
2190.37
2187.77
2185.23
2182.74
2180.3
2177.92
2175.6
2173.33
2171.11
2168.94
2166.83
2164.77
2162.75
2160.79
2158.88
2157.01
2155.19
2153.41
2151.68
2149.99
2148.34
2146.73
2145.15
2143.61
2142.11
2140.63
2139.19
2137.78
2136.39
2135.03
2133.69
2132.38
2131.08
2129.8
2128.54
2127.3
2126.06
2124.84
2123.62
2122.4
2121.19
2119.98
2118.77
2117.55
2116.32
2115.09
2113.84
2112.57
2111.29
2110
2108.68
2107.33
2105.96
2104.56
2103.14
2101.68
2100.19
2098.66
2097.1
2095.5
2093.86
2092.19
2090.48
2088.73
2086.94
2085.1
2083.23
2081.33
2079.38
2077.39
2075.37
2073.32
2071.22
2069.1
2066.94
2064.76
2062.54
2060.3
2058.03
2055.74
2053.42
2051.08
2048.73
2046.35
2043.95
2041.54
2039.12
2036.68
2034.23
2031.78
2029.31
2026.85
2024.38
2021.92
2019.45
2017
2014.55
2012.12
2009.7
2007.29
2004.91
2002.55
2000.21
1997.9
1995.62
1993.37
1991.16
1988.98
1986.83
1984.73
1982.66
1980.63
1978.65
1976.71
1974.81
1972.95
1971.14
1969.38
1967.66
1965.99
1964.37
1962.79
1961.26
1959.78
1958.35
1956.97
1955.64
1954.36
1953.13
1951.95
1950.82
1949.74
1948.71
1947.73
1946.79
1945.91
1945.07
1944.27
1943.52
1942.82
1942.16
1941.53
1940.95
1940.4
1939.89
1939.41
1938.96
1938.54
1938.15
1937.79
1937.45
1937.13
1936.83
1936.56
1936.3
1936.05
1935.82
1935.59
1935.38
1935.18
1934.99
1934.81
1934.63
1934.46
1934.3
1934.14
1933.99
1933.84
1933.7
1933.57
1933.44
1933.32
1933.21
1933.11
1933.01
1932.93
1932.85
1932.78
1932.73
1932.69
1932.66
1932.65
1932.65
1932.67
1932.7
1932.75
1932.81
1932.89
1932.99
1933.1
1933.23
1933.38
1933.53
1933.71
1933.89
1934.09
1934.29
1934.51
1934.73
1934.96
1935.19
1935.43
1935.67
1935.91
1936.16
1936.4
1936.64
1936.88
1937.11
1937.34
1937.56
1937.78
1937.99
1938.19
1938.38
1938.56
1938.73
1938.88
1939.02
1939.14
1939.24
1939.32
1939.38
1939.41
1939.41
1939.38
1939.33
1939.23
1939.11
1938.94
1938.73
1938.48
1938.18
1937.84
1937.45
1937.01
1936.52
1935.98
1935.39
1934.75
1934.05
1933.31
1932.52
1931.67
1930.77
1929.83
1928.84
1927.81
1926.73
1925.61
1924.45
1923.25
1922.02
1920.76
1919.47
1918.15
1916.81
1915.44
1914.06
1912.66
1911.25
1909.83
1908.4
1906.96
1905.52
1904.09
1902.66
1901.23
1899.82
1898.41
1897.02
1895.65
1894.3
1892.97
1891.66
1890.39
1889.14
1887.93
1886.75
1885.61
1884.51
1883.45
1882.44
1881.47
1880.54
1879.67
1878.84
1878.06
1877.33
1876.65
1876.02
1875.43
1874.89
1874.41
1873.96
1873.56
1873.21
1872.9
1872.62
1872.38
1872.18
1872.01
1871.87
1871.76
1871.68
1871.63
1871.59
1871.58
1871.58
1871.6
1871.63
1871.66
1871.71
1871.76
1871.82
1871.87
1871.93
1871.98
1872.02
1872.06
1872.08
1872.1
1872.1
1872.09
1872.06
1872.01
1871.94
1871.86
1871.75
1871.62
1871.48
1871.3
1871.11
1870.89
1870.64
1870.37
1870.07
1869.74
1869.39
1869
1868.58
1868.12
1867.63
1867.11
1866.54
1865.93
1865.29
1864.59
1863.86
1863.07
1862.24
1861.35
1860.42
1859.44
1858.4
1857.3
1856.16
1854.96
1853.71
1852.4
1851.04
1849.63
1848.16
1846.65
1845.08
1843.47
1841.81
1840.1
1838.35
1836.56
1834.72
1832.85
1830.93
1828.98
1827
1824.98
1822.93
1820.85
1818.73
1816.59
1814.43
1812.25
1810.03
1807.8
1805.54
1803.26
1800.97
1798.66
1796.32
1793.97
1791.6
1789.22
1786.83
1784.41
1781.99
1779.55
1777.1
1774.64
1772.17
1769.7
1767.22
1764.74
1762.26
1759.78
1757.3
1754.84
1752.38
1749.93
1747.5
1745.09
1742.71
1740.34
1738.01
1735.71
1733.45
1731.23
1729.06
1726.93
1724.87
1722.85
1720.91
1719.03
1717.22
1715.49
1713.85
1712.29
1710.82
1709.46
1708.19
1707.03
1705.99
1705.06
1704.25
1703.56
1702.99
1702.56
1702.27
1702.1
1702.07
1702.18
1702.44
1702.83
1703.37
1704.05
1704.87
1705.84
1706.95
1708.2
1709.6
1711.14
1712.82
1714.65
1716.62
1718.72
1720.97
1723.35
1725.86
1728.5
1731.25
1734.13
1737.12
1740.18
1743.31
1746.53
1749.8
1753.13
1756.5
1759.9
1763.33
1766.77
1770.22
1773.72
1777.26
1780.79
1784.29
1787.78
1791.32
1794.94
1798.55
1802.11
1805.58
1808.93
1812.18
1815.32
1818.38
1821.31
1824.07
1826.64
1829.03
1831.19
1833.11
1834.89
1836.59
1838.14
1839.43
1840.5
1841.41
1842.15
1842.7
1843.04
1843.12
1842.91
1842.53
1842.06
1841.51
1840.88
1840.07
1839.3
1838.57
1837.81
1836.92
1835.5
1833.52
1831.22
1828.58
1825.49
1821.95
1818
1813.82
1809.53
1805.04
1800.28
1795.35
1790.41
1785.55
1780.88
1776.43
1772.21
1768.23
1764.59
1761.42
1758.82
1756.95
1755.64
1754.95
1755.02
1755.85
1757.22
1758.84
1760.6
1762.42
1764.1
1765.37
1765.94
1765.65
1764.51
1762.4
1759.09
1754.55
1748.79
1741.82
1733.67
1724.4
1714.13
1703.06
1691.31
1678.98
1666.3
1653.54
1641.13
1629.24
1618.35
1608.74
1600.69
1594.39
1590.06
1587.84
1587.81
1589.96
1594.07
1599.67
1606.4
1613.97
1621.78
1629.27
1635.78
1640.92
1644.48
1646.2
1645.88
1643.44
1638.9
1632.4
1624.32
1615.18
1604.87
1592.41
1578.39
1563.05
1546.56
1529.1
1510.87
1492.02
1472.56
1452.57
1432.59
1412.14
1390.74
1368.75
1346.24
1323.18
1299.57
1275.43
1250.79
1225.7
1200.22
1174.47
1148.74
1123.29
1098.19
1073.44
1049.26
1025.94
1003.64
982.887
963.888
946.247
929.848
915.103
901.972
890.212
879.691
870.347
862.014
854.596
848.122
842.607
837.951
833.759
829.489
825.019
820.561
816.023
811.272
805.976
800.542
795.196
789.991
785.192
780.858
776.944
773.601
770.916
768.685
767.021
765.444
763.773
761.929
759.878
757.585
755.041
752.283
749.349
746.308
743.247
740.242
737.383
734.731
732.391
730.337
728.527
726.905
725.426
724.097
722.933
722.058
721.5
720.93
720.387
719.876
719.297
718.36
717.353
716.416
715.624
714.924
714.347
713.932
713.565
713.139
712.727
712.43
712.163
711.811
711.281
710.509
709.55
708.492
707.378
706.127
704.705
703.152
701.572
699.998