/*--------------------------------*- C++ -*----------------------------------*\
| =========                 |                                                 |
| \\      /  F ield         | OpenFOAM: The Open Source CFD Toolbox           |
|  \\    /   O peration     | Version:  v1812                                 |
|   \\  /    A nd           | Web:      www.OpenFOAM.com                      |
|    \\/     M anipulation  |                                                 |
\*---------------------------------------------------------------------------*/
FoamFile
{
    version     2.0;
    format      ascii;
    class       volScalarField;
    location    "300";
    object      p_rgh;
}
// * * * * * * * * * * * * * * * * * * * * * * * * * * * * * * * * * * * * * //

dimensions      [1 -1 -2 0 0 0 0];


internalField   nonuniform List<scalar> 
366376
(
-220.21
-219.865
-219.568
-219.317
-219.108
-218.934
-218.787
-218.662
-218.552
-218.454
-218.363
-218.278
-218.196
-218.116
-218.037
-217.958
-217.879
-217.799
-217.719
-217.637
-217.555
-217.471
-217.385
-217.298
-217.209
-217.118
-217.026
-216.931
-216.834
-216.735
-216.635
-216.533
-216.428
-216.323
-216.215
-216.105
-215.993
-215.88
-215.764
-215.647
-215.528
-215.406
-215.282
-215.157
-215.029
-214.899
-214.766
-214.632
-214.495
-214.356
-214.214
-214.07
-213.924
-213.774
-213.623
-213.469
-213.312
-213.152
-212.99
-212.825
-212.657
-212.486
-212.313
-212.136
-211.956
-211.774
-211.588
-211.399
-211.207
-211.011
-210.812
-210.61
-210.404
-210.195
-209.982
-209.766
-209.546
-209.322
-209.095
-208.863
-208.627
-208.388
-208.144
-207.897
-207.644
-207.388
-207.127
-206.862
-206.592
-206.318
-206.039
-205.755
-205.466
-205.172
-204.873
-204.568
-204.259
-203.944
-203.623
-203.297
-202.965
-202.627
-202.284
-201.934
-201.578
-201.216
-200.847
-200.472
-200.089
-199.7
-199.304
-198.901
-198.491
-198.072
-197.647
-197.213
-196.772
-196.322
-195.864
-195.398
-194.922
-194.438
-193.945
-193.442
-192.93
-192.408
-191.876
-191.333
-190.781
-190.217
-189.643
-189.057
-188.46
-187.852
-187.231
-186.598
-185.952
-185.294
-184.622
-183.937
-183.238
-182.525
-181.798
-181.056
-180.299
-179.526
-178.737
-177.933
-177.112
-176.273
-175.418
-174.545
-173.653
-172.743
-171.814
-170.866
-169.897
-168.908
-167.898
-166.865
-165.809
-164.73
-163.625
-162.493
-161.334
-160.146
-158.929
-157.681
-156.402
-155.09
-153.746
-152.368
-150.956
-149.508
-148.025
-146.506
-144.949
-143.355
-141.723
-140.051
-138.34
-136.589
-134.797
-132.963
-131.087
-129.168
-127.205
-125.198
-123.145
-121.045
-118.899
-116.704
-114.46
-112.167
-109.823
-107.427
-104.978
-102.476
-99.9205
-97.3096
-94.6431
-91.9204
-89.1408
-86.304
-83.4096
-80.4575
-77.4478
-74.3809
-71.2577
-68.0793
-64.848
-61.567
-58.2416
-54.8811
-51.5052
-48.1621
-45.0164
-41.978
-44.7627
-42.8283
-40.4279
-37.4898
-34.2073
-30.6418
-26.8303
-22.7998
-18.5727
-14.1672
-9.59799
-4.87683
-0.0137255
4.98134
10.0964
15.3182
20.6361
26.0489
31.5602
37.1672
42.866
48.6528
54.5236
60.4752
66.5044
72.608
78.7832
85.0276
91.3386
97.7143
104.154
110.659
117.228
123.861
130.559
137.322
144.149
151.039
157.991
165.005
172.08
179.216
186.412
193.666
200.977
208.345
215.769
223.246
230.775
238.356
245.986
253.664
261.388
269.157
276.969
284.821
292.712
300.64
308.603
316.598
324.623
332.677
340.756
348.858
356.98
365.121
373.277
381.446
389.624
397.81
406
414.191
422.381
430.566
438.743
446.909
455.061
463.196
471.31
479.4
487.463
495.496
503.494
511.456
519.376
527.252
535.081
542.858
550.581
558.245
565.848
573.385
580.854
588.252
595.575
602.819
609.981
617.057
624.045
630.94
637.739
644.44
651.038
657.531
663.915
670.186
676.343
682.381
688.297
694.09
699.754
705.288
710.688
715.952
721.077
726.059
730.896
735.584
740.12
744.501
748.722
752.781
756.673
760.397
763.95
767.331
770.537
773.568
776.423
779.102
781.603
783.927
786.073
788.038
789.82
791.415
792.819
794.259
795.885
797.286
798.321
799.114
799.683
800.041
800.2
800.165
799.941
799.529
798.934
798.155
797.194
796.054
794.734
793.237
791.563
789.715
787.692
785.497
783.132
780.597
777.894
775.025
771.992
768.797
765.441
761.927
758.257
754.433
750.457
746.331
742.058
737.641
733.082
728.384
723.549
718.58
713.48
708.252
702.899
697.424
691.83
686.121
680.298
674.367
668.329
662.188
655.949
649.614
643.186
636.67
630.068
623.385
616.623
609.786
602.878
595.902
588.862
581.762
574.604
567.393
560.133
552.826
545.476
538.087
530.662
523.205
515.72
508.209
500.677
493.126
485.56
477.983
470.398
462.808
455.217
447.627
440.043
432.467
424.903
417.353
409.822
402.312
394.826
387.367
379.94
372.544
365.182
357.854
350.56
343.301
336.078
328.89
321.739
314.623
307.545
300.503
293.501
286.539
279.621
272.746
265.916
259.129
252.384
245.681
239.02
232.404
225.833
219.31
212.835
206.412
200.041
193.725
187.464
181.261
175.115
169.028
163
157.031
151.122
145.271
139.48
133.746
128.071
122.452
116.888
111.379
105.921
100.514
95.1531
89.8355
84.559
79.3076
74.071
69.1293
60.9937
56.1183
51.161
46.3696
41.6945
37.1223
32.6439
28.253
23.9448
19.716
15.5638
11.4858
7.4802
3.54528
-0.320402
-4.11817
-7.84923
-11.5147
-15.1157
-18.6531
-22.128
-25.5412
-28.8937
-32.1864
-35.42
-38.5955
-41.7137
-44.7754
-47.7815
-50.7327
-53.6299
-56.4738
-59.2653
-62.0052
-64.6942
-67.3332
-69.9228
-72.464
-74.9574
-77.4038
-79.8039
-82.1585
-84.4682
-86.7339
-88.9562
-91.1359
-93.2736
-95.3701
-97.426
-99.442
-101.419
-103.357
-105.257
-107.12
-108.947
-110.737
-112.492
-114.213
-115.899
-117.552
-119.172
-120.759
-122.315
-123.839
-125.332
-126.779
-128.298
-129.687
-131.062
-132.409
-133.73
-135.024
-136.291
-137.533
-138.749
-139.94
-141.107
-142.25
-143.37
-144.466
-145.54
-146.592
-147.622
-148.631
-149.619
-150.587
-151.534
-152.462
-153.37
-154.259
-155.13
-155.983
-156.818
-157.636
-158.436
-159.22
-159.987
-160.738
-161.473
-162.193
-162.898
-163.588
-164.263
-164.924
-165.571
-166.205
-166.825
-167.432
-168.026
-168.607
-169.176
-169.733
-170.278
-170.812
-171.334
-171.845
-172.345
-172.834
-173.313
-173.782
-174.241
-174.69
-175.129
-175.559
-175.98
-176.392
-176.795
-177.189
-177.575
-177.952
-178.322
-178.683
-179.037
-179.383
-179.721
-180.053
-180.377
-180.694
-181.004
-181.308
-181.604
-181.895
-182.179
-182.457
-182.729
-182.995
-183.256
-183.511
-183.76
-184.003
-184.242
-184.475
-184.703
-184.926
-185.145
-185.358
-185.567
-185.771
-185.971
-186.166
-186.357
-186.544
-186.727
-186.906
-187.081
-187.252
-187.419
-187.582
-187.742
-187.898
-188.051
-188.201
-188.347
-188.49
-188.63
-188.766
-188.9
-189.031
-189.158
-189.283
-189.405
-189.524
-189.641
-189.755
-189.867
-189.975
-190.082
-190.186
-190.288
-190.387
-190.484
-190.579
-190.672
-190.763
-190.852
-190.938
-191.023
-191.106
-191.187
-191.266
-191.343
-191.418
-191.492
-191.564
-191.635
-191.704
-191.771
-191.836
-191.901
-191.963
-192.025
-192.085
-192.143
-192.2
-192.256
-192.311
-192.364
-192.417
-192.468
-192.518
-192.566
-192.614
-192.661
-192.706
-192.751
-192.795
-192.837
-192.879
-192.92
-192.96
-192.999
-193.037
-193.074
-193.111
-193.146
-193.181
-193.215
-193.248
-193.28
-193.312
-193.342
-193.372
-193.402
-193.43
-193.458
-193.485
-193.511
-193.536
-193.561
-193.585
-193.609
-193.631
-193.653
-193.674
-193.694
-193.714
-193.732
-193.749
-193.767
-193.788
-193.807
-193.822
-193.839
-193.853
-193.866
-193.879
-193.891
-193.903
-193.914
-193.925
-193.935
-193.944
-193.953
-193.961
-193.968
-193.975
-193.981
-193.986
-193.991
-193.995
-193.998
-194.001
-194.003
-194.004
-194.005
-194.005
-194.004
-194.003
-194.001
-193.998
-193.995
-193.99
-193.985
-193.98
-193.974
-193.967
-193.959
-193.95
-193.941
-193.931
-193.921
-193.909
-193.897
-193.884
-193.871
-193.856
-193.841
-193.826
-193.809
-193.792
-193.774
-193.756
-193.737
-193.717
-193.697
-193.675
-193.654
-193.632
-193.609
-193.586
-193.562
-193.538
-193.513
-193.488
-193.463
-193.438
-193.412
-193.386
-193.361
-193.335
-193.31
-193.284
-193.259
-193.235
-193.211
-193.188
-193.166
-193.145
-193.125
-193.107
-193.09
-193.075
-193.062
-193.051
-193.043
-193.038
-193.035
-193.037
-193.041
-193.05
-193.063
-193.081
-193.104
-193.132
-193.166
-193.206
-193.253
-193.307
-193.367
-193.435
-193.512
-193.598
-193.697
-193.81
-193.936
-194.073
-194.223
-194.385
-194.561
-194.751
-194.955
-195.176
-195.412
-195.665
-195.935
-196.224
-196.531
-196.856
-197.202
-197.567
-197.953
-198.359
-198.786
-199.235
-199.705
-200.196
-200.708
-201.241
-201.795
-202.369
-202.961
-203.573
-204.203
-204.851
-205.518
-206.205
-206.912
-207.642
-208.393
-209.167
-209.964
-210.783
-211.624
-212.485
-213.367
-214.267
-215.184
-216.118
-217.065
-218.026
-218.999
-219.981
-220.972
-221.97
-222.974
-223.982
-224.992
-226.004
-227.014
-228.023
-229.029
-230.031
-231.025
-232.013
-232.991
-233.958
-234.914
-235.856
-236.783
-237.695
-238.589
-239.464
-240.319
-241.153
-241.965
-242.753
-243.516
-244.254
-244.964
-245.646
-246.299
-246.922
-247.513
-248.073
-248.599
-249.092
-249.55
-249.973
-250.361
-250.713
-251.029
-251.305
-251.543
-251.743
-251.905
-252.028
-252.112
-252.157
-252.163
-252.132
-252.063
-251.957
-251.815
-251.636
-251.423
-251.176
-250.896
-250.584
-250.241
-249.869
-249.468
-249.041
-248.588
-248.112
-247.613
-247.093
-246.554
-245.998
-245.425
-244.839
-244.24
-243.63
-243.011
-242.384
-241.752
-241.115
-240.475
-239.834
-239.193
-238.554
-237.918
-237.286
-236.661
-236.042
-235.432
-234.831
-234.24
-233.661
-233.094
-232.54
-232.001
-231.476
-230.965
-230.471
-229.993
-229.532
-229.087
-228.66
-228.25
-227.858
-227.484
-227.128
-226.789
-226.468
-226.165
-225.879
-225.611
-225.36
-225.125
-224.908
-224.706
-224.52
-224.35
-224.194
-224.053
-223.926
-223.811
-223.709
-223.619
-223.541
-223.472
-223.413
-223.363
-223.32
-223.284
-223.254
-223.228
-223.206
-223.186
-223.167
-223.148
-223.128
-223.106
-223.08
-223.049
-223.012
-222.967
-222.915
-222.853
-222.78
-222.695
-222.598
-222.487
-222.361
-222.219
-222.062
-221.887
-221.694
-221.482
-221.252
-221.002
-220.732
-220.442
-220.13
-219.797
-219.443
-219.067
-218.669
-218.25
-217.808
-217.345
-216.859
-216.353
-215.825
-215.276
-214.706
-214.116
-213.506
-212.877
-212.23
-211.564
-210.882
-210.183
-209.469
-208.74
-207.999
-207.245
-206.48
-205.705
-204.922
-204.132
-203.336
-202.536
-201.733
-200.929
-200.126
-199.324
-198.526
-197.733
-196.947
-196.169
-195.401
-194.644
-193.9
-193.171
-192.457
-191.761
-191.083
-190.426
-189.789
-189.175
-188.584
-188.018
-187.476
-186.96
-186.471
-186.009
-185.574
-185.167
-184.787
-184.436
-184.111
-183.815
-183.545
-183.303
-183.086
-182.895
-182.727
-182.583
-182.462
-182.362
-182.281
-182.22
-182.176
-182.148
-182.135
-182.135
-182.146
-182.168
-182.198
-182.236
-182.28
-182.327
-182.378
-182.43
-182.482
-182.532
-182.581
-182.625
-182.664
-182.698
-182.724
-182.741
-182.75
-182.748
-182.734
-182.709
-182.67
-182.617
-182.55
-182.467
-182.367
-182.25
-182.115
-181.961
-181.787
-181.594
-181.378
-181.141
-180.881
-180.598
-180.291
-179.959
-179.602
-179.219
-178.809
-178.372
-177.908
-177.415
-176.895
-176.345
-175.765
-175.157
-174.519
-173.851
-173.152
-172.424
-171.666
-170.877
-170.059
-169.21
-168.331
-167.423
-166.485
-165.517
-164.52
-163.495
-162.44
-161.357
-160.246
-159.106
-157.939
-156.744
-155.521
-154.271
-152.993
-151.688
-150.355
-148.995
-147.607
-146.191
-144.746
-143.273
-141.771
-140.238
-138.676
-137.082
-135.457
-133.798
-132.107
-130.38
-128.618
-126.819
-124.981
-123.105
-121.189
-119.231
-117.23
-115.185
-113.094
-110.958
-108.774
-106.541
-104.258
-101.925
-99.5401
-97.1028
-94.6123
-92.068
-89.4692
-86.8155
-84.1065
-81.3419
-78.5215
-75.6453
-72.7133
-69.7256
-66.6824
-63.5841
-60.4311
-57.2239
-53.963
-50.6492
-47.2832
-43.8657
-40.3977
-36.8801
-33.3137
-29.6997
-26.0391
-22.3329
-18.5822
-14.7881
-10.9515
-7.07364
-3.15541
0.802429
4.79898
8.83336
12.9048
17.0125
21.1559
25.3345
29.5478
33.7954
38.077
42.3925
46.7418
51.1248
55.5418
59.9927
64.4781
68.9981
73.5535
78.1445
82.7719
87.4363
92.1382
96.8784
101.658
106.478
111.338
116.24
121.187
126.18
131.219
136.301
141.43
146.608
151.836
157.113
162.443
167.822
173.253
178.738
184.279
189.874
195.525
201.232
206.996
212.819
218.699
224.635
230.631
236.684
242.796
248.966
255.195
261.481
267.824
274.225
280.682
287.195
293.763
300.386
307.062
313.79
320.569
327.398
334.276
341.2
348.169
355.181
362.235
369.329
376.462
383.633
390.834
398.063
405.32
412.601
419.905
427.227
434.566
441.917
449.279
456.648
464.02
471.393
478.763
486.127
493.482
500.824
508.149
515.455
522.738
529.995
537.223
544.417
551.576
558.696
565.773
572.805
579.789
586.721
593.599
600.42
607.181
613.88
620.513
627.078
633.573
639.995
646.341
652.61
658.799
664.906
670.927
676.862
682.708
688.462
694.123
699.688
705.155
710.522
715.788
720.949
726.004
730.952
735.789
740.514
745.125
749.619
753.996
758.253
762.388
766.398
770.283
774.04
777.668
781.164
784.526
787.753
790.843
793.794
796.604
799.272
801.795
804.173
806.403
808.484
810.413
812.19
813.812
815.279
816.588
817.744
818.747
819.587
820.268
820.786
821.135
821.321
821.341
821.196
820.885
820.401
819.752
818.936
817.951
816.797
815.475
813.983
812.324
810.495
808.498
806.333
804
801.501
798.835
796.003
793.006
789.846
786.522
783.035
779.388
775.581
771.615
767.492
763.214
758.781
754.195
749.459
744.573
739.539
734.36
729.037
723.573
717.97
712.229
706.353
700.345
694.207
687.943
681.553
675.041
668.411
661.665
654.806
647.837
640.762
633.584
626.307
618.934
611.468
603.914
596.276
588.557
580.762
572.894
564.959
556.96
548.902
540.79
532.628
524.42
516.172
507.889
499.574
491.234
482.872
474.495
466.106
457.712
449.316
440.924
432.541
424.172
415.821
407.494
399.195
390.929
382.7
374.512
366.371
358.279
350.242
342.263
334.345
326.493
318.71
310.998
303.361
295.801
288.322
280.924
273.612
266.386
259.248
252.2
245.243
238.379
231.608
224.931
218.349
211.861
205.47
199.174
192.974
186.869
180.86
174.945
169.125
163.398
157.764
152.223
146.773
141.414
136.145
130.964
125.872
120.867
115.948
111.113
106.363
101.695
97.1083
92.6023
88.1755
83.8267
79.5549
75.3589
71.2379
67.1894
63.2142
59.3101
55.4765
51.7115
48.0144
44.3832
40.8161
37.3149
33.8774
30.5005
27.1847
23.929
20.7321
17.593
14.5103
11.483
8.50992
5.58996
2.72194
-0.0953365
-2.86308
-5.58254
-8.25497
-10.8817
-13.464
-16.0032
-18.5008
-20.9581
-23.3766
-25.7578
-28.1032
-30.4144
-32.6929
-34.9405
-37.1587
-39.3492
-41.5137
-43.6538
-45.7713
-47.8677
-49.9449
-52.0045
-54.0483
-56.0778
-58.0946
-60.1005
-62.097
-64.0856
-66.0678
-68.045
-70.0187
-71.9901
-73.9604
-75.9308
-77.9025
-79.8763
-81.8531
-83.8339
-85.8193
-87.8098
-89.8061
-91.8084
-93.8171
-95.8324
-97.8543
-99.8828
-101.918
-103.959
-106.006
-108.059
-110.117
-112.179
-114.244
-116.312
-118.382
-120.453
-122.524
-124.594
-126.663
-128.728
-130.789
-132.845
-134.894
-136.935
-138.967
-140.988
-142.997
-144.993
-146.974
-148.94
-150.888
-152.817
-154.726
-156.613
-158.477
-160.317
-162.131
-163.918
-165.677
-167.406
-169.103
-170.769
-172.4
-173.997
-175.558
-177.082
-178.568
-180.015
-181.422
-182.787
-184.111
-185.391
-186.628
-187.821
-188.969
-190.07
-191.126
-192.134
-193.095
-194.007
-194.872
-195.686
-196.453
-197.169
-197.834
-198.449
-199.013
-199.526
-199.988
-200.4
-200.76
-201.068
-201.326
-201.533
-201.689
-201.794
-201.85
-201.856
-201.813
-201.722
-201.583
-201.397
-201.166
-200.89
-200.571
-200.209
-199.807
-199.364
-198.884
-198.368
-197.817
-197.233
-196.618
-195.974
-195.303
-194.607
-193.887
-193.147
-192.388
-191.613
-190.824
-190.022
-189.212
-188.394
-187.571
-186.747
-185.922
-185.099
-184.282
-183.471
-182.67
-181.881
-181.105
-180.346
-179.604
-178.883
-178.184
-177.509
-176.859
-176.237
-175.643
-175.08
-174.549
-174.05
-173.585
-173.155
-172.761
-172.403
-172.082
-171.799
-171.553
-171.345
-171.176
-171.045
-170.952
-170.898
-170.881
-170.903
-170.961
-171.057
-171.188
-171.356
-171.56
-171.799
-172.072
-172.38
-172.721
-173.095
-173.501
-173.939
-174.408
-174.908
-175.437
-175.997
-176.585
-177.202
-177.846
-178.517
-179.216
-179.94
-180.69
-181.465
-182.264
-183.087
-183.932
-184.8
-185.689
-186.599
-187.529
-188.478
-189.446
-190.43
-191.431
-192.447
-193.477
-194.52
-195.574
-196.639
-197.711
-198.791
-199.876
-200.965
-202.055
-203.145
-204.233
-205.316
-206.393
-207.461
-208.519
-209.563
-210.592
-211.603
-212.593
-213.561
-214.505
-215.421
-216.307
-217.162
-217.984
-218.77
-219.518
-220.227
-220.895
-221.521
-222.102
-222.639
-223.13
-223.573
-223.969
-224.316
-224.615
-224.864
-225.065
-225.216
-225.318
-225.372
-225.378
-225.337
-225.249
-225.115
-224.936
-224.714
-224.449
-224.143
-223.797
-223.412
-222.99
-222.532
-222.039
-221.514
-220.957
-220.371
-219.756
-219.114
-218.447
-217.756
-217.043
-216.309
-215.555
-214.784
-213.996
-213.193
-212.376
-211.546
-210.706
-209.855
-208.997
-208.13
-207.259
-206.382
-205.502
-204.619
-203.736
-202.853
-201.971
-201.091
-200.216
-199.346
-198.482
-197.625
-196.777
-195.939
-195.112
-194.298
-193.497
-192.711
-191.942
-191.19
-190.456
-189.743
-189.05
-188.38
-187.734
-187.113
-186.517
-185.949
-185.409
-184.897
-184.416
-183.967
-183.549
-183.163
-182.811
-182.493
-182.21
-181.961
-181.748
-181.571
-181.43
-181.325
-181.257
-181.225
-181.228
-181.267
-181.342
-181.452
-181.596
-181.775
-181.988
-182.233
-182.51
-182.819
-183.157
-183.524
-183.92
-184.342
-184.789
-185.261
-185.755
-186.271
-186.806
-187.36
-187.93
-188.515
-189.114
-189.724
-190.345
-190.974
-191.609
-192.25
-192.895
-193.542
-194.189
-194.836
-195.48
-196.12
-196.756
-197.385
-198.006
-198.619
-199.223
-199.815
-200.397
-200.966
-201.522
-202.064
-202.592
-203.106
-203.604
-204.087
-204.555
-205.007
-205.444
-205.864
-206.269
-206.659
-207.034
-207.393
-207.738
-208.069
-208.386
-208.69
-208.981
-209.26
-209.527
-209.783
-210.029
-210.265
-210.492
-210.711
-210.922
-211.126
-211.324
-211.516
-211.704
-211.888
-212.068
-212.246
-212.422
-212.597
-212.771
-212.946
-213.121
-213.297
-213.476
-213.656
-213.84
-214.027
-214.218
-214.412
-214.612
-214.816
-215.024
-215.238
-215.458
-215.682
-215.912
-216.148
-216.389
-216.635
-216.886
-217.143
-217.404
-217.67
-217.941
-218.215
-218.493
-218.774
-219.058
-219.344
-219.632
-219.92
-220.21
-220.499
-220.787
-221.073
-221.357
-221.638
-221.914
-222.186
-222.452
-222.712
-222.964
-223.208
-223.442
-223.666
-223.879
-224.08
-224.268
-224.442
-224.601
-224.744
-224.871
-224.981
-225.071
-225.143
-225.194
-225.224
-225.233
-225.218
-225.181
-225.12
-225.035
-224.924
-224.787
-224.624
-224.435
-224.219
-223.975
-223.704
-223.406
-223.08
-222.726
-222.345
-221.937
-221.502
-221.041
-220.553
-220.04
-219.502
-218.94
-218.355
-217.747
-217.118
-216.468
-215.799
-215.111
-214.407
-213.687
-212.952
-212.205
-211.446
-210.677
-209.899
-209.114
-208.323
-207.527
-206.729
-205.93
-205.13
-204.333
-203.537
-202.746
-201.96
-201.181
-200.409
-199.645
-198.892
-198.149
-197.418
-196.699
-195.994
-195.303
-194.627
-193.966
-193.321
-192.694
-192.083
-191.49
-190.915
-190.36
-189.823
-189.305
-188.807
-188.329
-187.871
-187.433
-187.016
-186.619
-186.243
-185.887
-185.552
-185.236
-184.941
-184.665
-184.409
-184.172
-183.954
-183.755
-183.573
-183.408
-183.261
-183.129
-183.013
-182.912
-182.825
-182.752
-182.691
-182.643
-182.606
-182.579
-182.562
-182.555
-182.556
-182.564
-182.58
-182.602
-182.629
-182.662
-182.699
-182.741
-182.785
-182.833
-182.883
-182.935
-182.989
-183.044
-183.099
-183.156
-183.212
-183.269
-183.326
-183.381
-183.437
-183.491
-183.545
-183.597
-183.648
-183.698
-183.746
-183.793
-183.838
-183.881
-183.922
-183.961
-183.998
-184.032
-184.064
-184.094
-184.12
-184.143
-184.162
-184.178
-184.19
-184.197
-184.199
-184.197
-184.188
-184.173
-184.152
-184.123
-184.087
-184.043
-183.99
-183.928
-183.856
-183.773
-183.679
-183.574
-183.457
-183.326
-183.183
-183.025
-182.853
-182.665
-182.462
-182.243
-182.006
-181.753
-181.482
-181.192
-180.884
-180.556
-180.209
-179.842
-179.455
-179.048
-178.62
-178.171
-177.701
-177.211
-176.699
-176.167
-175.614
-175.04
-174.446
-173.832
-173.199
-172.546
-171.875
-171.185
-170.479
-169.755
-169.015
-168.259
-167.489
-166.704
-165.907
-165.097
-164.276
-163.444
-162.602
-161.751
-160.892
-160.026
-159.153
-158.275
-157.392
-156.505
-155.615
-154.723
-153.828
-152.932
-152.036
-151.139
-150.243
-149.348
-148.454
-147.561
-146.67
-145.781
-144.893
-144.008
-143.124
-142.242
-141.361
-140.481
-139.602
-138.722
-137.841
-136.958
-136.072
-135.182
-134.288
-133.387
-132.478
-131.561
-130.632
-129.692
-128.737
-127.767
-126.779
-125.771
-124.741
-123.688
-122.609
-121.502
-120.365
-119.195
-117.991
-116.751
-115.471
-114.151
-112.787
-111.378
-109.921
-108.415
-106.857
-105.246
-103.579
-101.855
-100.072
-98.2276
-96.3212
-94.3507
-92.3149
-90.2123
-88.0416
-85.8013
-83.4905
-81.1081
-78.6533
-76.1252
-73.5233
-70.8468
-68.0953
-65.2683
-62.3656
-59.3868
-56.3319
-53.2006
-49.9931
-46.7093
-43.3493
-39.9134
-36.4016
-32.8143
-29.1518
-25.4143
-21.6022
-17.7158
-13.7556
-9.72191
-5.61503
-1.43544
2.81643
7.14019
11.5354
16.0017
20.5386
25.1459
29.823
34.5695
39.385
44.2677
49.2195
54.2589
59.3479
64.503
69.7247
75.0138
80.369
85.7942
91.2821
96.8349
102.453
108.136
113.882
119.691
125.565
131.502
137.501
143.563
149.687
155.873
162.12
168.427
174.797
181.226
187.713
194.26
200.865
207.527
214.246
221.021
227.851
234.736
241.673
248.663
255.704
262.795
269.934
277.121
284.353
291.63
298.949
306.308
313.707
321.142
328.613
336.116
343.65
351.213
358.802
366.415
374.05
381.704
389.375
397.06
404.756
412.46
420.17
427.883
435.596
443.306
451.012
458.709
466.396
474.069
481.725
489.361
496.975
504.563
512.122
519.65
527.142
534.597
542.011
549.38
556.702
563.974
571.193
578.355
585.458
592.499
599.474
606.38
613.215
619.977
626.661
633.265
639.786
646.223
652.571
658.828
664.992
671.061
677.03
682.899
688.664
694.323
699.874
705.314
710.642
715.855
720.953
725.929
730.784
735.515
740.122
744.601
748.951
753.17
757.258
761.211
765.028
768.709
772.251
775.653
778.914
782.033
785.009
787.841
790.528
793.069
795.464
797.712
799.813
801.767
803.574
805.234
806.749
808.116
809.343
810.422
811.366
812.172
812.854
813.419
813.871
814.237
814.572
814.888
815.793
816.26
813.78
811.689
810.147
808.643
807.054
805.347
803.515
801.553
799.467
797.248
794.897
792.411
789.793
787.036
784.143
781.115
777.953
774.658
771.228
767.664
763.969
760.143
756.188
752.105
747.894
743.557
739.095
734.51
729.803
724.976
720.03
714.966
709.787
704.494
699.088
693.573
687.949
682.218
676.383
670.446
664.408
658.272
652.041
645.716
639.301
632.796
626.204
619.53
612.774
605.941
599.031
592.049
584.997
577.877
570.693
563.448
556.144
548.785
541.373
533.911
526.403
518.852
511.26
503.63
495.967
488.271
480.548
472.799
465.028
457.238
449.431
441.611
433.781
425.943
418.101
410.257
402.414
394.575
386.743
378.92
371.108
363.311
355.53
347.769
340.029
332.313
324.622
316.96
309.327
301.727
294.161
286.63
279.137
271.683
264.271
256.901
249.575
242.294
235.06
227.874
220.738
213.653
206.62
199.64
192.715
185.846
179.033
172.278
165.582
158.946
152.37
145.856
139.405
133.017
126.693
120.435
114.243
108.118
102.061
96.0738
90.156
84.3088
78.5331
72.8296
67.1991
61.6423
56.1599
50.7525
45.421
40.1657
34.9874
29.8865
24.8636
19.9193
15.0538
10.2673
5.5604
0.934035
-3.61234
-8.07844
-12.464
-16.7689
-20.993
-25.1358
-29.1981
-33.1799
-37.0807
-40.8996
-44.6373
-48.2949
-51.8717
-55.3677
-58.783
-62.1179
-65.3723
-68.5463
-71.6403
-74.6547
-77.5897
-80.4454
-83.2222
-85.9203
-88.5402
-91.0822
-93.5466
-95.934
-98.2447
-100.479
-102.639
-104.723
-106.733
-108.67
-110.535
-112.328
-114.05
-115.702
-117.286
-118.803
-120.254
-121.64
-122.964
-124.226
-125.428
-126.573
-127.661
-128.695
-129.677
-130.609
-131.493
-132.331
-133.124
-133.877
-134.589
-135.264
-135.904
-136.511
-137.087
-137.634
-138.154
-138.648
-139.12
-139.571
-140.002
-140.415
-140.812
-141.195
-141.565
-141.924
-142.272
-142.613
-142.946
-143.273
-143.596
-143.915
-144.232
-144.548
-144.864
-145.181
-145.5
-145.823
-146.15
-146.482
-146.82
-147.165
-147.518
-147.88
-148.251
-148.633
-149.025
-149.429
-149.845
-150.273
-150.714
-151.169
-151.637
-152.119
-152.615
-153.125
-153.648
-154.185
-154.736
-155.299
-155.875
-156.462
-157.061
-157.671
-158.291
-158.919
-159.556
-160.2
-160.85
-161.506
-162.165
-162.828
-163.493
-164.158
-164.824
-165.488
-166.15
-166.809
-167.464
-168.114
-168.759
-169.397
-170.029
-170.653
-171.269
-171.876
-172.474
-173.064
-173.644
-174.214
-174.774
-175.325
-175.865
-176.396
-176.916
-177.427
-177.927
-178.417
-178.897
-179.367
-179.827
-180.277
-180.717
-181.148
-181.57
-181.983
-182.387
-182.783
-183.171
-183.551
-183.925
-184.292
-184.654
-185.011
-185.363
-185.712
-186.059
-186.403
-186.747
-187.09
-187.435
-187.781
-188.13
-188.483
-188.84
-189.202
-189.57
-189.945
-190.328
-190.718
-191.118
-191.527
-191.945
-192.374
-192.814
-193.264
-193.726
-194.199
-194.684
-195.18
-195.688
-196.207
-196.738
-197.279
-197.832
-198.395
-198.969
-199.554
-200.148
-200.751
-201.364
-201.986
-202.615
-203.253
-203.898
-204.55
-205.208
-205.871
-206.54
-207.212
-207.889
-208.568
-209.249
-209.931
-210.613
-211.295
-211.975
-212.653
-213.328
-213.998
-214.663
-215.321
-215.972
-216.615
-217.248
-217.872
-218.484
-219.085
-219.673
-220.247
-220.808
-221.354
-221.885
-222.401
-222.9
-223.383
-223.849
-224.297
-224.728
-225.141
-225.536
-225.912
-226.269
-226.608
-226.926
-227.225
-227.503
-227.761
-227.997
-228.212
-228.404
-228.574
-228.721
-228.844
-228.944
-229.02
-229.072
-229.1
-229.104
-229.084
-229.04
-228.972
-228.882
-228.769
-228.634
-228.479
-228.303
-228.107
-227.893
-227.662
-227.415
-227.152
-226.876
-226.587
-226.287
-225.977
-225.659
-225.333
-225.002
-224.667
-224.328
-223.988
-223.648
-223.309
-222.972
-222.64
-222.313
-221.992
-221.679
-221.374
-221.08
-220.797
-220.525
-220.266
-220.022
-219.793
-219.579
-219.381
-219.202
-219.04
-218.897
-218.773
-218.669
-218.586
-218.524
-218.483
-218.463
-218.467
-218.494
-218.544
-218.619
-218.717
-218.84
-218.988
-219.162
-219.362
-219.589
-219.843
-220.125
-220.436
-220.776
-221.146
-221.546
-221.978
-222.442
-222.939
-223.47
-224.035
-224.634
-225.27
-225.941
-226.65
-227.394
-228.176
-228.995
-229.851
-230.744
-231.673
-232.638
-233.638
-234.673
-235.741
-236.843
-237.975
-239.138
-240.33
-241.549
-242.794
-244.064
-245.355
-246.668
-247.999
-249.348
-250.711
-252.087
-253.475
-254.873
-256.278
-257.688
-259.102
-260.518
-261.935
-263.35
-264.762
-266.17
-267.572
-268.967
-270.354
-271.73
-273.094
-274.447
-275.785
-277.109
-278.416
-279.706
-280.977
-282.229
-283.46
-284.668
-285.854
-287.015
-288.151
-289.26
-290.341
-291.393
-292.414
-293.403
-294.358
-295.279
-296.162
-297.008
-297.816
-298.582
-299.306
-299.986
-300.621
-301.209
-301.75
-302.241
-302.683
-303.074
-303.414
-303.701
-303.935
-304.117
-304.244
-304.317
-304.337
-304.302
-304.213
-304.071
-303.876
-303.627
-303.327
-302.975
-302.572
-302.119
-301.617
-301.067
-300.471
-299.829
-299.143
-298.415
-297.646
-296.837
-295.99
-295.107
-294.188
-293.236
-292.252
-291.238
-290.196
-289.127
-288.033
-286.916
-285.777
-284.62
-283.444
-282.253
-281.049
-279.834
-278.609
-277.379
-276.144
-274.907
-273.67
-272.437
-271.209
-269.989
-268.778
-267.581
-266.4
-265.237
-264.092
-262.969
-261.871
-260.801
-259.758
-258.743
-257.761
-256.814
-255.903
-255.028
-254.19
-253.386
-252.623
-251.9
-251.215
-250.571
-249.968
-249.405
-248.881
-248.396
-247.949
-247.539
-247.165
-246.826
-246.521
-246.248
-246.006
-245.793
-245.608
-245.45
-245.318
-245.209
-245.122
-245.056
-245.01
-244.982
-244.97
-244.973
-244.989
-245.015
-245.051
-245.093
-245.139
-245.187
-245.234
-245.279
-245.317
-245.348
-245.367
-245.372
-245.361
-245.331
-245.28
-245.203
-245.1
-244.969
-244.807
-244.611
-244.38
-244.115
-243.812
-243.47
-243.088
-242.666
-242.201
-241.693
-241.142
-240.547
-239.908
-239.222
-238.489
-237.711
-236.886
-236.012
-235.089
-234.119
-233.1
-232.032
-230.913
-229.745
-228.528
-227.262
-225.945
-224.578
-223.166
-221.705
-220.197
-218.641
-217.042
-215.399
-213.712
-211.984
-210.217
-208.412
-206.571
-204.694
-202.784
-200.843
-198.873
-196.876
-194.852
-192.806
-190.738
-188.65
-186.544
-184.421
-182.285
-180.136
-177.975
-175.803
-173.623
-171.434
-169.239
-167.037
-164.828
-162.614
-160.394
-158.169
-155.938
-153.702
-151.46
-149.212
-146.958
-144.696
-142.428
-140.15
-137.864
-135.57
-133.264
-130.947
-128.618
-126.277
-123.923
-121.553
-119.169
-116.77
-114.356
-111.926
-109.48
-107.017
-104.54
-102.048
-99.5405
-97.0186
-94.485
-91.9402
-89.3832
-86.8161
-84.2423
-81.6619
-79.0739
-76.4809
-73.8862
-71.2894
-68.6902
-66.0912
-63.4946
-60.9004
-58.3087
-55.7215
-53.1399
-50.5639
-47.9945
-45.434
-42.8835
-40.3427
-37.813
-35.2965
-32.7951
-30.3092
-27.8407
-25.393
-22.967
-20.5639
-18.1868
-15.8387
-13.5206
-11.2344
-8.98352
-6.76962
-4.59476
-2.46215
-0.373044
1.67104
3.66775
5.61689
7.51686
9.36497
11.1624
12.9097
14.6045
16.2461
17.8372
19.3785
20.8668
22.3033
23.6939
25.038
26.3331
27.5846
28.7974
29.9702
31.1032
32.2023
33.2699
34.3061
35.3144
36.2987
37.2609
38.2037
39.1304
40.0433
40.9448
41.8381
42.7263
43.6126
44.4998
45.3897
46.2856
47.1907
48.107
49.0371
49.9844
50.9516
51.9378
52.9493
53.99
55.0601
56.1624
57.2989
58.4729
59.6866
60.9419
62.2406
63.5836
64.9721
66.4072
67.8903
69.4205
70.9986
72.626
74.3024
76.0259
77.7974
79.6163
81.4792
83.3865
85.3366
87.3266
89.3541
91.4205
93.522
95.6558
97.8194
100.012
102.232
104.475
106.741
109.025
111.327
113.643
115.97
118.306
120.649
122.998
125.349
127.699
130.047
132.391
134.729
137.058
139.376
141.682
143.975
146.251
148.511
150.753
152.977
155.18
157.361
159.522
161.661
163.775
165.865
167.931
169.97
171.982
173.966
175.922
177.848
179.741
181.6
183.428
185.219
186.972
188.685
190.359
191.989
193.574
195.112
196.606
198.048
199.438
200.781
202.072
203.306
204.487
205.615
206.689
207.707
208.671
209.582
210.439
211.244
211.999
212.703
213.358
213.966
214.526
215.042
215.516
215.946
216.333
216.684
216.999
217.276
217.518
217.731
217.911
218.058
218.182
218.282