/*--------------------------------*- C++ -*----------------------------------*\
| =========                 |                                                 |
| \\      /  F ield         | foam-extend: Open Source CFD                    |
|  \\    /   O peration     | Version:     3.1                                |
|   \\  /    A nd           | Web:         http://www.extend-project.de       |
|    \\/     M anipulation  |                                                 |
\*---------------------------------------------------------------------------*/
FoamFile
{
    version     2.0;
    format      ascii;
    class       volVectorField;
    location    "0";
    object      U;
}
// * * * * * * * * * * * * * * * * * * * * * * * * * * * * * * * * * * * * * //

dimensions      [0 1 -1 0 0 0 0];

internalField   uniform (0 0 0);

boundaryField
{
    atmosphere
    {
        type            pressureInletOutletVelocity;
        value           uniform (0 0 0);
    }
    inlet
    {
        type            waveVelocity;
        refValue        nonuniform List<vector> 
86
(
(-0.0552994 -0.000147539 0)
(-0.0552996 -0.000429046 0)
(-0.0553002 -0.000739788 0)
(-0.0553014 -0.00114982 0)
(-0.0553037 -0.00169085 0)
(-0.0553082 -0.00240476 0)
(-0.0553164 -0.0033468 0)
(-0.0553511 -0.00582426 0)
(-0.0554432 -0.00970817 0)
(-0.0555815 -0.0135937 0)
(-0.0557661 -0.0174814 0)
(-0.0559973 -0.0213719 0)
(-0.0562752 -0.025266 0)
(-0.0566002 -0.0291641 0)
(-0.0569728 -0.033067 0)
(-0.0573932 -0.0369751 0)
(-0.057862 -0.0408891 0)
(-0.0583796 -0.0448096 0)
(-0.0589467 -0.0487371 0)
(-0.0595639 -0.0526723 0)
(-0.0602318 -0.0566155 0)
(-0.0609513 -0.0605674 0)
(-0.061723 -0.0645285 0)
(-0.0625479 -0.0684992 0)
(-0.0634269 -0.07248 0)
(-0.0643609 -0.0764713 0)
(-0.065351 -0.0804736 0)
(-0.0663982 -0.0844872 0)
(-0.0675036 -0.0885125 0)
(-0.0686686 -0.0925498 0)
(-0.0698943 -0.0965994 0)
(-0.071182 -0.100662 0)
(-0.0725332 -0.104737 0)
(-0.0739493 -0.108824 0)
(-0.0754319 -0.112926 0)
(-0.0769824 -0.11704 0)
(-0.0786026 -0.121167 0)
(-0.0802942 -0.125308 0)
(-0.0820589 -0.129462 0)
(-0.0838986 -0.133629 0)
(-0.0858152 -0.137808 0)
(-0.0878107 -0.142001 0)
(-0.0898872 -0.146205 0)
(-0.0920467 -0.150422 0)
(-0.0938573 -0.153844 0)
(0 0 0)
(0 0 0)
(0 0 0)
(0 0 0)
(0 0 0)
(0 0 0)
(0 0 0)
(0 0 0)
(0 0 0)
(0 0 0)
(0 0 0)
(0 0 0)
(0 0 0)
(0 0 0)
(0 0 0)
(0 0 0)
(0 0 0)
(0 0 0)
(0 0 0)
(0 0 0)
(0 0 0)
(0 0 0)
(0 0 0)
(0 0 0)
(0 0 0)
(0 0 0)
(0 0 0)
(0 0 0)
(0 0 0)
(0 0 0)
(0 0 0)
(0 0 0)
(0 0 0)
(0 0 0)
(0 0 0)
(0 0 0)
(0 0 0)
(0 0 0)
(0 0 0)
(0 0 0)
(0 0 0)
)
;
        refGradient     uniform (0 0 0);
        valueFraction   uniform 1;
        value           nonuniform List<vector> 
86
(
(-0.0552994 -0.000147539 0)
(-0.0552996 -0.000429046 0)
(-0.0553002 -0.000739788 0)
(-0.0553014 -0.00114982 0)
(-0.0553037 -0.00169085 0)
(-0.0553082 -0.00240476 0)
(-0.0553164 -0.0033468 0)
(-0.0553511 -0.00582426 0)
(-0.0554432 -0.00970817 0)
(-0.0555815 -0.0135937 0)
(-0.0557661 -0.0174814 0)
(-0.0559973 -0.0213719 0)
(-0.0562752 -0.025266 0)
(-0.0566002 -0.0291641 0)
(-0.0569728 -0.033067 0)
(-0.0573932 -0.0369751 0)
(-0.057862 -0.0408891 0)
(-0.0583796 -0.0448096 0)
(-0.0589467 -0.0487371 0)
(-0.0595639 -0.0526723 0)
(-0.0602318 -0.0566155 0)
(-0.0609513 -0.0605674 0)
(-0.061723 -0.0645285 0)
(-0.0625479 -0.0684992 0)
(-0.0634269 -0.07248 0)
(-0.0643609 -0.0764713 0)
(-0.065351 -0.0804736 0)
(-0.0663982 -0.0844872 0)
(-0.0675036 -0.0885125 0)
(-0.0686686 -0.0925498 0)
(-0.0698943 -0.0965994 0)
(-0.071182 -0.100662 0)
(-0.0725332 -0.104737 0)
(-0.0739493 -0.108824 0)
(-0.0754319 -0.112926 0)
(-0.0769824 -0.11704 0)
(-0.0786026 -0.121167 0)
(-0.0802942 -0.125308 0)
(-0.0820589 -0.129462 0)
(-0.0838986 -0.133629 0)
(-0.0858152 -0.137808 0)
(-0.0878107 -0.142001 0)
(-0.0898872 -0.146205 0)
(-0.0920467 -0.150422 0)
(-0.0938573 -0.153844 0)
(0 0 0)
(0 0 0)
(0 0 0)
(0 0 0)
(0 0 0)
(0 0 0)
(0 0 0)
(0 0 0)
(0 0 0)
(0 0 0)
(0 0 0)
(0 0 0)
(0 0 0)
(0 0 0)
(0 0 0)
(0 0 0)
(0 0 0)
(0 0 0)
(0 0 0)
(0 0 0)
(0 0 0)
(0 0 0)
(0 0 0)
(0 0 0)
(0 0 0)
(0 0 0)
(0 0 0)
(0 0 0)
(0 0 0)
(0 0 0)
(0 0 0)
(0 0 0)
(0 0 0)
(0 0 0)
(0 0 0)
(0 0 0)
(0 0 0)
(0 0 0)
(0 0 0)
(0 0 0)
(0 0 0)
)
;
    }
    outlet
    {
        type            fixedValue;
        value           uniform (0 0 0);
    }
    bottom
    {
        type            fixedValue;
        value           uniform (0 0 0);
    }
    frontBack
    {
        type            empty;
    }
}


// ************************************************************************* //
