/*--------------------------------*- C++ -*----------------------------------*\
| =========                 |                                                 |
| \\      /  F ield         | foam-extend: Open Source CFD                    |
|  \\    /   O peration     | Version:     3.1                                |
|   \\  /    A nd           | Web:         http://www.extend-project.de       |
|    \\/     M anipulation  |                                                 |
\*---------------------------------------------------------------------------*/
FoamFile
{
    version     2.0;
    format      ascii;
    class       volScalarField;
    location    "120";
    object      alpha.water;
}
// * * * * * * * * * * * * * * * * * * * * * * * * * * * * * * * * * * * * * //

dimensions      [0 0 0 0 0 0 0];

internalField   nonuniform List<scalar> 
212248
(
1
1
1
1
1
1
1
1
1
1
1
1
1
1
1
1
1
1
1
1
1
1
1
1
1
1
1
1
1
1
1
1
1
1
1
1
1
1
1
1
1
1
1
1
1
1
1
1
1
1
1
1
1
1
1
1
1
1
1
1
1
1
1
1
1
1
1
1
1
1
1
1
1
1
1
1
1
1
1
1
1
1
1
1
1
1
1
1
1
1
1
1
1
1
1
1
1
1
1
1
1
1
1
1
1
1
1
1
1
1
1
1
1
1
1
1
1
1
1
1
1
1
1
1
1
1
1
1
1
1
1
1
1
1
1
1
1
1
1
1
1
1
1
1
1
1
1
1
1
1
1
1
1
1
1
1
1
1
1
1
1
1
1
1
1
1
1
1
1
1
1
1
1
1
1
1
1
1
1
1
1
1
1
1
1
1
1
1
1
1
1
1
1
1
1
1
1
1
1
1
1
1
1
1
1
1
1
1
1
1
1
1
1
1
1
1
1
1
1
1
1
1
1
1
1
1
1
1
1
1
1
1
1
1
1
1
1
1
1
1
1
1
1
1
1
1
1
1
1
1
1
1
1
1
1
1
1
1
1
1
1
1
1
1
1
1
1
1
1
1
1
1
1
1
1
1
1
1
1
1
1
1
1
1
1
1
1
1
1
1
1
1
1
1
1
1
1
1
1
1
1
1
1
1
1
1
1
1
1
1
1
1
1
1
1
1
1
1
1
1
1
1
1
1
1
1
1
1
1
1
1
1
1
1
1
1
1
1
1
1
1
1
1
1
1
1
1
1
1
1
1
1
1
1
1
1
1
1
1
1
1
1
1
1
1
1
1
1
1
1
1
1
1
1
1
1
1
1
1
1
1
1
1
1
1
1
1
1
1
1
1
1
1
1
1
1
1
1
1
1
1
1
1
1
1
1
1
1
1
1
1
1
1
1
1
1
1
1
1
1
1
1
1
1
1
1
1
1
1
1
1
1
1
1
1
1
1
1
1
1
1
1
1
1
1
1
1
1
1
1
1
1
1
1
1
1
1
1
1
1
1
1
1
1
1
1
1
1
1
1
1
1
1
1
1
1
1
1
1
1
1
1
1
1
1
1
1
1
1
1
1
1
1
1
1
1
1
1
1
1
1
1
1
1
1
1
1
1
1
1
1
1
1
1
1
1
1
1
1
1
1
1
1
1
1
1
1
1
1
1
1
1
1
1
1
1
1
1
1
1
1
1
1
1
1
1
1
1
1
1
1
1
1
1
1
1
1
1
1
1
1
1
1
1
1
1
1
1
1
1
1
1
1
1
1
1
1
1
1
1
1
1
1
1
1
1
1
1
1
1
1
1
1
1
1
1
1
1
1
1
1
1
1
1
1
1
1
1
1
1
1
1
1
1
1
1
1
1
1
1
1
1
1
1
1
1
1
1
1
1
1
1
1
1
1
1
1
1
1
1
1
1
1
1
1
1
1
1
1
1
1
1
1
1
1
1
1
1
1
1
1
1
1
1
1
1
1
1
1
1
1
1
1
1
1
1
1
1
1
1
1
1
1
1
1
1
1
1
1
1
1
1
1
1
1
1
1
1
1
1
1
1
1
1
1
1
1
1
1
1
1
1
1
1
1
1
1
1
1
1
1
1
1
1
1
1
1
1
1
1
1
1
1
1
1
1
1
1
1
1
1
1
1
1
1
1
1
1
1
1
1
1
1
1
1
1
1
1
1
1
1
1
1
1
1
1
1
1
1
1
1
1
1
1
1
1
1
1
1
1
1
1
1
1
1
1
1
1
1
1
1
1
1
1
1
1
1
1
1
1
1
1
1
1
1
1
1
1
1
1
1
1
1
1
1
1
1
1
1
1
1
1
1
1
1
1
1
1
1
1
1
1
1
1
1
1
1
1
1
1
1
1
1
1
1
1
1
1
1
1
1
1
1
1
1
1
1
1
1
1
1
1
1
1
1
1
1
1
1
1
1
1
1
1
1
1
1
1
1
1
1
1
1
1
1
1
1
1
1
1
1
1
1
1
1
1
1
1
1
1
1
1
1
1
1
1
1
1
1
1
1
1
1
1
1
1
1
1
1
1
1
1
1
1
1
1
1
1
1
1
1
1
1
1
1
1
1
1
1
1
1
1
1
1
1
1
1
1
1
1
1
1
1
1
1
1
1
1
1
1
1
1
1
1
1
1
1
1
1
1
1
1
1
1
1
1
1
1
1
1
1
1
1
1
1
1
1
1
1
1
1
1
1
1
1
1
1
1
1
1
1
1
1
1
1
1
1
1
1
1
1
1
1
1
1
1
1
1
1
1
1
1
1
1
1
1
1
1
1
1
1
1
1
1
1
1
1
1
1
1
1
1
1
1
1
1
1
1
1
1
1
1
1
1
1
1
1
1
1
1
1
1
1
1
1
1
1
1
1
1
1
1
1
1
1
1
1
1
1
1
1
1
1
1
1
1
1
1
1
1
1
1
1
1
1
1
1
1
1
1
1
1
1
1
1
1
1
1
1
1
1
1
1
1
1
1
1
1
1
1
1
1
1
1
1
1
1
1
1
1
1
1
1
1
1
1
1
1
1
1
1
1
1
1
1
1
1
1
1
1
1
1
1
1
1
1
1
1
1
1
1
1
1
1
1
1
1
1
1
1
1
1
1
1
1
1
1
1
1
1
1
1
1
1
1
1
1
1
1
1
1
1
1
1
1
1
1
1
1
1
1
1
1
1
1
1
1
1
1
1
1
1
1
1
1
1
1
1
1
1
1
1
1
1
1
1
1
1
1
1
1
1
1
1
1
1
1
1
1
1
1
1
1
1
1
1
1
1
1
1
1
1
1
1
1
1
1
1
1
1
1
1
1
1
1
1
1
1
1
1
1
1
1
1
1
1
1
1
1
1
1
1
1
1
1
1
1
1
1
1
1
1
1
1
1
1
1
1
1
1
1
1
1
1
1
1
1
1
1
1
1
1
1
1
1
1
1
1
1
1
1
1
1
1
1
1
1
1
1
1
1
1
1
1
1
1
1
1
1
1
1
1
1
1
1
1
1
1
1
1
1
1
1
1
1
1
1
1
1
1
1
1
1
1
1
1
1
1
1
1
1
1
1
1
1
1
1
1
1
1
1
1
1
1
1
1
1
1
1
1
0.999999
0.999999
0.999999
0.999999
0.999999
1
0.999996
0.999982
0.999973
0.999972
0.999984
0.999997
1
1
1
1
1
1
1
1
0.999998
0.999997
0.999997
0.999998
0.999999
1
1
0.999999
0.999998
0.999997
0.999995
0.999994
0.999991
0.999991
0.999992
0.999995
0.999998
1
1
1
0.999999
0.999997
0.999996
0.999996
0.999995
0.999995
0.999995
0.999994
0.999994
0.999994
0.999993
0.999993
0.999992
0.999991
0.999991
0.999994
0.999997
0.99999
0.999919
0.999793
0.999664
0.99961
0.999688
0.999924
0.999984
0.999991
0.999992
0.999988
0.999981
0.999979
0.999981
0.999983
0.999983
0.999981
0.999981
0.999981
0.999981
0.999981
0.999981
0.999982
0.999982
0.999983
0.999987
0.999991
0.999994
0.999998
0.999998
0.999999
0.999996
0.999979
0.999948
0.999935
0.999982
0.999997
0.999997
0.999994
0.999995
0.999999
0.999999
0.999999
0.999999
0.999999
0.999988
0.999964
0.999954
0.999955
0.999968
0.999975
0.999967
0.999949
0.999938
0.999935
0.999935
0.999942
0.99996
0.999978
0.999992
0.999998
1
1
1
1
1
1
1
1
1
1
1
1
1
1
1
1
1
1
1
1
1
1
1
0.999997
0.999984
0.999961
0.999946
0.999946
0.999962
0.999984
0.999977
0.999938
0.999897
0.999894
0.999901
0.99993
0.99997
0.999984
0.999969
0.99992
0.999841
0.999788
0.999789
0.999821
0.999899
0.999978
0.999994
0.999994
0.999994
0.999995
0.999996
0.999996
0.999996
0.999973
0.999826
0.999674
0.99979
0.999948
0.999979
0.999951
0.999912
0.999913
0.999955
0.999989
0.99999
0.999986
0.999985
0.999987
0.999989
0.999979
0.999884
0.99962
0.99942
0.999325
0.999039
0.998826
0.999099
0.999739
0.99998
0.999946
0.999897
0.999895
0.999906
0.999916
0.99991
0.999901
0.999881
0.999851
0.999803
0.999831
0.999908
0.999973
0.99999
0.99999
0.999989
0.99999
0.999992
0.999995
0.999996
0.999995
0.999992
0.999991
0.999989
0.999954
0.999862
0.999911
0.99997
0.999989
0.999983
0.999971
0.999959
0.999953
0.999946
0.99997
0.999985
0.999986
0.999986
0.999978
0.999934
0.99989
0.999907
0.999956
0.999971
0.999967
0.999956
0.999944
0.999936
0.999933
0.99985
0.999915
0.999937
0.999734
0.999539
0.999774
0.999976
0.99998
0.999963
0.999954
0.999967
0.999974
0.999968
0.999951
0.999934
0.999925
0.999922
0.999922
0.999968
0.999975
0.99997
0.999767
0.99935
0.999005
0.998779
0.998814
0.999152
0.999031
0.994888
0.990154
0.990447
0.99555
0.998949
0.999835
0.999945
0.999965
0.999704
0.998925
0.997989
0.997415
0.997306
0.997902
0.999077
0.999708
0.999835
0.999685
0.998788
0.99758
0.996518
0.995903
0.995712
0.99566
0.995532
0.995176
0.9946
0.993925
0.993358
0.993103
0.993067
0.993081
0.993026
0.992653
0.992366
0.992328
0.992561
0.99291
0.993029
0.991129
0.986845
0.982585
0.979628
0.97866
0.979082
0.985921
0.994268
0.998604
0.999683
0.999895
0.999761
0.999232
0.998799
0.998702
0.999139
0.999756
0.999839
0.99902
0.998262
0.998168
0.998481
0.998652
0.998693
0.997947
0.997645
0.997614
0.99806
0.998875
0.999526
0.999872
0.999975
0.999993
0.999974
0.999537
0.992728
0.980114
0.972491
0.971802
0.982885
0.995766
0.999451
0.999953
0.999996
1
1
1
0.999985
0.999933
0.999865
0.9998
0.999739
0.999676
0.999641
0.999676
0.999764
0.999498
0.997524
0.995812
0.995531
0.996307
0.997988
0.999279
0.999858
0.999983
0.99999
0.999953
0.999894
0.999868
0.999867
0.999885
0.999895
0.999899
0.999902
0.999509
0.997288
0.995055
0.994815
0.997069
0.997798
0.997354
0.996848
0.996589
0.99673
0.997306
0.998167
0.999009
0.99954
0.999085
0.991653
0.978407
0.964907
0.960309
0.965146
0.980639
0.993037
0.998974
0.999538
0.99975
0.999512
0.998006
0.997186
0.998156
0.992268
0.973644
0.968306
0.976802
0.982583
0.982524
0.978025
0.973652
0.971736
0.9718
0.979434
0.990032
0.996576
0.998449
0.998682
0.997241
0.994882
0.992696
0.990953
0.990228
0.990382
0.996503
0.997907
0.998183
0.998016
0.998159
0.997064
0.98719
0.966899
0.961788
0.972423
0.986021
0.98554
0.978351
0.976849
0.983475
0.992581
0.99184
0.981562
0.959273
0.946992
0.952348
0.973077
0.993133
0.999318
0.999585
0.99919
0.998969
0.999036
0.998793
0.995949
0.994856
0.995631
0.998299
0.99958
0.999188
0.998055
0.993722
0.975137
0.96307
0.965746
0.97759
0.991912
0.999491
0.999668
0.999066
0.998018
0.997951
0.998323
0.998614
0.998499
0.998534
0.99864
0.998608
0.998689
0.995681
0.981269
0.964507
0.964815
0.976621
0.993124
0.999683
0.999536
0.999243
0.998428
0.995077
0.983158
0.98397
0.990861
0.997838
0.999843
0.999804
0.999256
0.989985
0.950335
0.950304
0.973852
0.99596
0.997304
0.99082
0.958842
0.954147
0.9728
0.995142
0.999332
0.999497
0.99923
0.995494
0.969271
0.9351
0.945388
0.985203
0.998373
0.999002
0.999226
0.999461
0.998125
0.979794
0.949434
0.938231
0.959445
0.991146
0.999226
0.998992
0.994273
0.990479
0.992193
0.997785
0.999213
0.99941
0.991687
0.945744
0.913134
0.936352
0.985574
0.997795
0.999357
0.999602
0.99955
0.993337
0.972885
0.957804
0.954391
0.968039
0.993227
0.997747
0.997947
0.997992
0.996389
0.981334
0.96333
0.964887
0.986854
0.998093
0.999447
0.999277
0.993231
0.98068
0.973657
0.97256
0.974587
0.984429
0.994443
0.998597
0.998882
0.998188
0.996948
0.996422
0.99643
0.997051
0.997466
0.993835
0.971607
0.956242
0.960697
0.986181
0.997802
0.999462
0.994673
0.981852
0.970853
0.975944
0.993164
0.996217
0.99728
0.997704
0.991117
0.966496
0.952005
0.955301
0.983776
0.997342
0.998384
0.996456
0.993955
0.992721
0.993159
0.995987
0.996778
0.987286
0.972095
0.962248
0.959489
0.980395
0.98727
0.974889
0.960402
0.983883
0.995967
0.9963
0.991714
0.992948
0.996935
0.997489
0.99679
0.994947
0.974484
0.944396
0.943848
0.980759
0.997188
0.998357
0.993592
0.989942
0.992459
0.997667
0.998605
0.998176
0.988068
0.974769
0.970569
0.97342
0.981556
0.985118
0.990164
0.991506
0.992436
0.993346
0.989779
0.958318
0.931048
0.925584
0.937264
0.961841
0.981051
0.993158
0.9986
0.999333
0.999444
0.999142
0.997889
0.996129
0.994828
0.994738
0.996328
0.994145
0.981423
0.95314
0.927411
0.92423
0.946536
0.974974
0.994352
0.999444
0.999633
0.998342
0.996998
0.994641
0.988034
0.977322
0.987225
0.998036
0.999373
0.999706
0.999293
0.997776
0.995263
0.989799
0.961124
0.937593
0.939453
0.960837
0.990751
0.999445
0.998501
0.970335
0.85824
0.969501
0.991142
0.995629
0.998848
0.999104
0.996716
0.996766
0.985158
0.966392
0.947722
0.937287
0.941428
0.980611
0.996652
0.995681
0.96501
0.903813
0.889118
0.954954
0.994326
0.996108
0.99804
0.998425
0.996343
0.979861
0.953765
0.925935
0.914426
0.939678
0.984398
0.996151
0.996765
0.997627
0.998452
0.998442
0.991974
0.931037
0.882521
0.899868
0.948281
0.962288
0.961988
0.953437
0.939709
0.938274
0.949477
0.913948
0.939173
0.987606
0.997381
0.998294
0.994814
0.978071
0.97446
0.990596
0.994354
0.983743
0.950748
0.936281
0.942501
0.987563
0.998932
0.998047
0.977663
0.948889
0.935384
0.935742
0.96328
0.99143
0.994681
0.966881
0.842428
0.797846
0.898071
0.983321
0.996909
0.99826
0.996141
0.993233
0.992514
0.993533
0.997482
0.998831
0.999177
0.99926
0.99577
0.957742
0.90112
0.904819
0.974628
0.997543
0.99895
0.995929
0.972731
0.93563
0.906507
0.900544
0.925547
0.971011
0.991307
0.993257
0.994034
0.994417
0.988483
0.954279
0.930806
0.932096
0.975199
0.995857
0.997062
0.968819
0.903053
0.883141
0.921092
0.982122
0.992225
0.992913
0.993737
0.99523
0.996289
0.977822
0.919424
0.888625
0.900073
0.968516
0.992854
0.993656
0.99348
0.993324
0.991153
0.965154
0.94355
0.94222
0.963687
0.9703
0.945384
0.93077
0.930286
0.931678
0.931194
0.952092
0.987159
0.996325
0.985228
0.95553
0.948399
0.976263
0.995776
0.996334
0.983633
0.975213
0.975347
0.990412
0.996212
0.996187
0.995908
0.997086
0.998188
0.985253
0.950991
0.928186
0.928505
0.971882
0.995592
0.998425
0.998904
0.998995
0.993352
0.975506
0.960834
0.95806
0.972904
0.994303
0.999001
0.999494
0.996684
0.950521
0.881799
0.881759
0.958465
0.992693
0.99715
0.981375
0.960411
0.954923
0.965669
0.989571
0.996373
0.995518
0.977159
0.936138
0.870216
0.896395
0.981114
0.997618
0.995446
0.966771
0.925991
0.913248
0.986671
0.998639
0.99953
0.999263
0.997876
0.991883
0.963017
0.917415
0.897817
0.959273
0.995235
0.997917
0.995523
0.994166
0.990242
0.95137
0.886376
0.898013
0.981202
0.991262
0.985902
0.972112
0.959493
0.957227
0.970384
0.980413
0.982595
0.983521
0.986194
0.990262
0.992988
0.97519
0.903442
0.86043
0.949223
0.987241
0.992138
0.992827
0.989084
0.95147
0.905171
0.926513
0.985587
0.990283
0.961953
0.873053
0.822886
0.952924
0.990205
0.990378
0.970325
0.877331
0.788258
0.829194
0.968009
0.989907
0.988839
0.987609
0.987671
0.989334
0.987441
0.917026
0.80421
0.86704
0.982897
0.985941
0.983137
0.978005
0.969826
0.959744
0.953659
0.954926
0.961704
0.952811
0.899068
0.900391
0.970962
0.985126
0.930213
0.885857
0.884483
0.940355
0.988033
0.99494
0.99366
0.986646
0.978334
0.972295
0.97058
0.970552
0.971773
0.972015
0.97202
0.972533
0.973443
0.974829
0.9774
0.980279
0.981818
0.9821
0.981977
0.978804
0.973524
0.969605
0.968192
0.967203
0.965827
0.965578
0.96642
0.967672
0.96855
0.970015
0.970404
0.963662
0.954174
0.946793
0.943937
0.941932
0.937551
0.933463
0.929735
0.92262
0.917685
0.917006
0.91228
0.866
0.809616
0.778122
0.771345
0.792218
0.820953
0.828431
0.808916
0.78282
0.758553
0.737347
0.708417
0.661959
0.616221
0.604654
0.642482
0.669108
0.674815
0.681469
0.688722
0.665462
0.612787
0.572595
0.5356
0.513607
0.500698
0.489514
0.480238
0.451187
0.404065
0.369846
0.368622
0.265192
0.186495
0.176927
0.180786
0.168019
0.186125
0.0639195
0.0858488
0.0840378
0.111587
0.117223
0.106825
0.130405
0.280116
0.154731
0.0431768
0.0415967
0.0300294
0.0230289
1
1
1
1
1
1
1
1
1
1
1
1
1
1
1
1
1
1
1
1
1
1
1
1
1
1
1
1
1
1
1
1
1
1
1
1
1
1
1
1
1
1
1
1
1
1
1
1
1
1
1
1
1
1
1
1
1
1
1
1
1
1
1
1
1
1
1
1
1
1
1
1
1
1
1
1
1
1
1
1
1
1
1
1
1
1
1
1
1
1
1
1
1
1
1
1
1
1
1
1
1
1
1
1
1
1
1
1
1
1
1
1
1
1
1
1
1
1
1
1
1
1
1
1
1
1
1
1
1
1
1
1
1
1
1
1
1
1
1
1
1
1
1
1
1
1
1
1
1
1
1
1
1
1
1
1
1
1
1
1
1
1
1
1
1
1
1
1
1
1
1
1
1
1
1
1
1
1
1
1
1
1
1
1
1
1
1
1
1
1
1
1
1
1
1
1
1
1
1
1
1
1
1
1
1
1
1
1
1
1
1
1
1
1
1
1
1
1
1
1
1
1
1
1
1
1
1
1
1
1
1
1
1
1
1
1
1
1
1
1
1
1
1
1
1
1
1
1
1
1
1
1
1
1
1
1
1
1
1
1
1
1
1
1
1
1
1
1
1
1
1
1
1
1
1
1
1
1
1
1
1
1
1
1
1
1
1
1
1
1
1
1
1
1
1
1
1
1
1
1
1
1
1
1
1
1
1
1
1
1
1
1
1
1
1
1
1
1
1
1
1
1
1
1
1
1
1
1
1
1
1
1
1
1
1
1
1
1
1
1
1
1
1
1
1
1
1
1
1
1
1
1
1
1
1
1
1
1
1
1
1
1
1
1
1
1
1
1
1
1
1
1
1
1
1
1
1
1
1
1
1
1
1
1
1
1
1
1
1
1
1
1
1
1
1
1
1
1
1
1
1
1
1
1
1
1
1
1
1
1
1
1
1
1
1
1
1
1
1
1
1
1
1
1
1
1
1
1
1
1
1
1
1
1
1
1
1
1
1
1
1
1
1
1
1
1
1
1
1
1
1
1
1
1
1
1
1
1
1
1
1
1
1
1
1
1
1
1
1
1
1
1
1
1
1
1
1
1
1
1
1
1
1
1
1
1
1
1
1
1
1
1
1
1
1
1
1
1
1
1
1
1
1
1
1
1
1
1
1
1
1
1
1
1
1
1
1
1
1
1
1
1
1
1
1
1
1
1
1
1
1
1
1
1
1
1
1
1
1
1
1
1
1
1
1
1
1
1
1
1
1
1
1
1
1
1
1
1
1
1
1
1
1
1
1
1
1
1
1
1
1
1
1
1
1
1
1
1
1
1
1
1
1
1
1
1
1
1
1
1
1
1
1
1
1
1
1
1
1
1
1
1
1
1
1
1
1
1
1
1
1
1
1
1
1
1
1
1
1
1
1
1
1
1
1
1
1
1
1
1
1
1
1
1
1
1
1
1
1
1
1
1
1
1
1
1
1
1
1
1
1
1
1
1
1
1
1
1
1
1
1
1
1
1
1
1
1
1
1
1
1
1
1
1
1
1
1
1
1
1
1
1
1
1
1
1
1
1
1
1
1
1
1
1
1
1
1
1
1
1
1
1
1
1
1
1
1
1
1
1
1
1
1
1
1
1
1
1
1
1
1
1
1
1
1
1
1
1
1
1
1
1
1
1
1
1
1
1
1
1
1
1
1
1
1
1
1
1
1
1
1
1
1
1
1
1
1
1
1
1
1
1
1
1
1
1
1
1
1
1
1
1
1
1
1
1
1
1
1
1
1
1
1
1
1
1
1
1
1
1
1
1
1
1
1
1
1
1
1
1
1
1
1
1
1
1
1
1
1
1
1
1
1
1
1
1
1
1
1
1
1
1
1
1
1
1
1
1
1
1
1
1
1
1
1
1
1
1
1
1
1
1
1
1
1
1
1
1
1
1
1
1
1
1
1
1
1
1
1
1
1
1
1
1
1
1
1
1
1
1
1
1
1
1
1
1
1
1
1
1
1
1
1
1
1
1
1
1
1
1
1
1
1
1
1
1
1
1
1
1
1
1
1
1
1
1
1
1
1
1
1
1
1
1
1
1
1
1
1
1
1
1
1
1
1
1
1
1
1
1
1
1
1
1
1
1
1
1
1
1
1
1
1
1
1
1
1
1
1
1
1
1
1
1
1
1
1
1
1
1
1
1
1
1
1
1
1
1
1
1
1
1
1
1
1
1
1
1
1
1
1
1
1
1
1
1
1
1
1
1
1
1
1
1
1
1
1
1
1
1
1
1
1
1
1
1
1
1
1
1
1
1
1
1
1
1
1
1
1
1
1
1
1
1
1
1
1
1
1
1
1
1
1
1
1
1
1
1
1
1
1
1
1
1
1
1
1
1
1
1
1
1
1
1
1
1
1
1
1
1
1
1
1
1
1
1
1
1
1
1
1
1
1
1
1
1
1
1
1
1
1
1
1
1
1
1
1
1
1
1
1
1
1
1
1
1
1
1
1
1
1
1
1
1
1
1
1
1
1
1
1
1
1
1
1
1
1
1
1
1
1
1
1
1
1
1
1
1
1
1
1
1
1
1
1
1
1
1
1
1
1
1
1
1
1
1
1
1
1
1
1
1
1
1
1
1
1
1
1
1
1
1
1
1
1
1
1
1
1
1
1
1
1
1
1
1
1
1
1
1
1
1
1
1
1
1
1
1
1
1
1
1
1
1
1
1
1
1
1
1
1
1
1
1
1
1
1
1
1
1
1
1
1
1
1
1
1
1
1
1
1
1
1
1
1
1
1
1
1
1
1
1
1
1
1
1
1
1
1
1
1
1
1
1
1
1
1
1
1
1
1
1
1
1
1
1
1
1
1
1
1
1
1
1
1
1
1
1
1
1
1
1
1
1
1
1
1
1
1
1
1
1
1
1
1
1
1
1
1
1
1
1
1
1
1
1
1
1
1
1
1
1
1
1
1
1
1
1
1
1
1
1
1
1
1
1
1
1
1
1
1
1
1
1
1
1
1
1
1
1
1
1
1
1
1
1
1
1
1
1
1
1
1
1
1
1
1
1
1
1
1
1
1
1
1
1
1
1
1
1
1
1
1
1
1
1
1
1
1
1
1
1
1
1
1
1
1
1
1
1
1
1
1
1
1
1
1
1
1
1
1
1
1
1
1
1
1
1
1
1
1
1
1
1
1
1
1
1
1
1
1
1
1
1
1
1
1
1
1
1
1
1
1
1
1
1
1
1
1
1
1
1
1
1
1
1
1
1
1
1
1
1
1
1
1
1
1
1
1
1
1
1
1
1
1
1
1
1
1
1
1
1
1
1
1
1
1
1
1
1
1
1
1
1
1
1
1
1
1
1
1
1
1
1
1
1
1
1
1
1
1
1
1
1
1
1
1
1
1
1
1
1
1
1
1
1
1
1
1
1
1
1
1
1
1
1
1
1
1
1
1
1
1
1
1
1
1
1
1
1
1
1
1
1
1
1
1
1
1
1
1
1
1
1
1
1
1
1
1
1
1
1
1
1
1
1
1
1
1
1
1
1
1
1
1
1
1
1
1
1
1
1
1
1
1
1
1
1
1
1
1
1
1
1
1
1
1
1
1
1
1
1
1
1
1
1
1
1
1
1
1
1
1
1
1
1
1
1
1
1
1
1
1
1
1
1
1
1
1
1
1
1
1
1
1
1
1
1
1
1
1
1
1
1
1
1
1
1
1
1
1
1
1
1
1
1
1
1
1
1
1
1
1
1
1
1
1
1
1
1
1
1
1
1
1
1
1
1
1
1
1
1
1
1
1
1
1
1
1
1
1
1
1
1
1
1
1
1
1
1
1
1
1
1
1
1
1
1
1
1
1
1
1
1
1
1
1
1
1
1
1
1
1
1
1
1
1
1
1
1
1
1
1
1
1
1
1
1
1
1
1
1
1
1
1
1
1
1
1
1
1
1
1
1
1
1
1
1
1
1
1
1
1
1
1
1
1
1
1
1
1
1
1
1
1
1
1
1
1
1
1
1
1
1
1
1
1
1
1
1
1
1
1
1
1
1
1
1
1
1
1
1
1
1
1
1
1
1
1
1
1
1
1
1
1
1
1
1
1
1
1
1
1
1
1
1
1
1
1
1
1
1
1
1
1
1
1
1
1
1
1
1
1
1
1
1
1
1
1
1
1
1
1
1
1
1
1
1
1
1
1
1
1
1
1
1
1
1
1
1
1
1
1
1
1
1
1
1
1
1
1
1
1
1
1
1
1
1
1
1
1
1
1
1
1
1
1
1
1
1
1
1
1
1
1
1
1
1
1
1
1
1
1
1
1
1
1
1
1
1
1
1
1
1
1
1
1
1
1
1
1
1
1
1
1
1
1
1
1
1
1
1
1
1
1
1
1
1
1
1
1
1
1
1
1
1
1
1
1
1
1
1
1
1
1
1
1
1
1
1
1
1
1
1
1
1
1
1
1
1
1
1
1
1
1
1
1
1
1
1
1
1
1
1
1
1
1
1
1
1
1
1
1
1
1
1
1
1
1
1
1
1
1
1
1
1
1
1
1
1
1
1
1
1
1
1
1
1
1
1
1
1
1
1
1
1
1
1
1
1
1
1
1
1
1
1
1
1
1
1
1
1
1
1
1
1
1
1
1
1
1
1
1
1
1
1
1
1
1
1
1
1
1
1
1
1
1
1
1
1
1
1
1
1
1
1
1
1
1
1
1
1
1
1
1
1
1
1
1
1
1
1
1
1
1
1
1
1
1
1
1
1
1
1
1
1
1
1
1
1
1
1
1
1
1
1
1
1
1
1
1
1
1
1
1
1
1
1
1
1
1
1
1
1
1
1
1
1
1
1
1
1
1
1
1
1
1
1
1
1
1
1
1
1
1
1
1
1
1
1
1
1
1
1
1
1
1
1
1
1
1
1
1
1
1
1
1
1
1
1
1
1
1
1
1
1
1
1
1
1
1
1
1
1
1
1
1
1
1
1
1
1
1
1
1
1
1
1
1
1
1
1
1
1
1
1
1
1
1
1
1
1
1
1
1
1
1
1
1
1
1
1
1
1
1
1
1
1
1
1
1
1
1
1
1
1
1
1
1
1
1
1
1
1
1
1
1
1
1
1
1
1
1
1
1
1
1
1
1
1
1
1
1
1
1
1
1
1
1
1
1
1
1
1
1
1
1
1
1
1
1
1
1
1
1
1
1
1
1
1
1
1
1
1
1
1
1
1
1
1
1
1
1
1
1
1
1
1
1
1
1
1
1
1
1
1
1
1
1
1
1
1
1
1
1
1
1
1
1
1
1
1
1
1
1
1
1
1
1
1
1
1
1
1
1
1
1
1
1
1
1
1
1
1
1
1
1
1
1
1
1
1
1
1
1
1
1
1
1
1
1
1
1
1
1
1
1
1
1
1
1
1
1
1
1
1
1
1
1
1
1
1
1
1
1
1
1
1
1
1
1
1
1
1
1
1
1
1
1
1
1
1
1
1
1
1
1
1
1
1
1
1
1
1
1
1
1
1
1
1
1
1
1
1
1
1
1
1
1
1
1
1
1
1
1
1
1
1
1
1
1
1
1
1
1
1
1
1
1
1
1
1
1
1
1
1
1
1
1
1
1
1
1
1
1
1
1
1
1
1
1
1
1
1
1
1
1
1
1
1
1
1
1
1
1
1
1
1
1
1
1
1
1
1
1
1
1
1
1
1
1
1
1
1
1
1
1
1
1
1
1
1
1
1
1
1
1
1
1
1
1
1
1
1
1
1
1
1
1
1
1
1
1
1
1
1
1
1
1
1
1
1
1
1
1
1
1
1
1
1
1
1
1
1
1
1
1
1
1
1
1
1
1
1
1
1
1
1
1
1
1
1
1
1
1
1
1
1
1
1
1
1
1
1
1
1
1
1
1
1
1
1
1
1
1
1
1
1
1
1
1
1
1
1
1
1
1
1
1
1
1
1
1
1
1
1
1
1
1
1
1
1
1
1
1
1
1
1
1
1
1
1
1
1
1
1
1
1
1
1
1
1
1
1
1
1
1
1
1
1
1
1
1
1
1
1
1
1
1
1
1
1
1
1
1
1
1
1
1
1
1
1
1
1
1
1
1
1
1
1
1
1
1
1
1
1
1
1
1
1
1
1
1
1
1
1
1
1
1
1
1
1
1
1
1
1
1
1
1
1
1
1
1
1
1
1
1
1
1
1
1
1
1
1
1
1
1
1
1
1
1
1
1
1
1
1
1
1
1
1
1
1
1
1
1
1
1
1
1
1
1
1
1
1
1
1
1
1
1
1
1
1
1
1
1
1
1
1
1
1
1
1
1
1
1
1
1
1
1
1
1
1
1
1
1
1
1
1
1
1
1
1
1
1
1
1
1
1
1
1
1
1
1
1
1
1
1
1
1
1
1
1
1
1
1
1
1
1
1
1
1
1
1
1
1
1
1
1
1
1
1
1
1
1
1
1
1
1
1
1
1
1
1
1
1
1
1
1
1
1
1
1
1
1
1
1
1
1
1
1
1
1
1
1
1
1
1
1
1
1
1
1
1
1
1
1
1
1
1
1
1
1
1
1
1
1
1
1
1
1
1
1
1
1
1
1
1
1
1
1
1
1
1
1
1
1
1
1
1
1
1
1
1
1
1
1
1
1
1
1
1
1
1
1
1
1
1
1
1
1
1
1
1
1
1
1
1
1
1
1
1
1
1
1
1
1
1
1
1
1
1
1
1
1
1
1
1
1
1
1
1
1
1
1
1
1
1
1
1
1
1
1
1
1
1
1
1
1
1
1
1
1
1
1
1
1
1
1
1
1
1
1
1
1
1
1
1
1
1
1
1
1
1
1
1
1
1
1
1
1
1
1
1
1
1
1
1
1
1
1
1
1
1
1
1
1
1
1
1
1
1
1
1
1
1
1
1
1
1
1
1
1
1
1
1
1
1
1
1
1
1
1
1
1
1
1
1
1
1
1
1
1
1
1
1
1
1
1
1
1
1
1
1
1
1
1
1
1
1
1
1
1
1
1
1
1
1
1
1
1
1
1
1
1
1
1
1
1
1
1
1
1
1
1
1
1
1
1
1
1
1
1
1
1
1
1
1
1
1
1
1
1
1
1
1
1
1
1
1
1
1
1
1
1
1
1
1
1
1
1
1
1
1
1
1
1
1
1
1
1
1
1
1
1
1
1
1
1
1
1
1
1
1
1
1
1
1
1
1
1
1
1
1
1
1
1
1
1
1
1
1
1
1
1
1
1
1
1
1
1
1
1
1
1
1
1
1
1
1
1
1
1
1
1
1
1
1
1
1
1
1
1
1
1
1
1
1
1
1
1
1
1
1
1
1
1
1
1
1
1
1
1
1
1
1
1
1
1
1
1
1
1
1
1
1
1
1
1
1
1
1
1
1
1
1
1
1
1
1
1
1
1
1
1
1
1
1
1
1
1
1
1
1
1
1
1
1
1
1
1
1
1
1
1
1
1
1
1
1
1
1
1
1
1
1
1
1
1
1
1
1
1
1
1
1
1
1
1
1
1
1
1
1
1
1
1
1
1
1
1
1
1
1
1
1
1
1
1
1
1
1
1
1
1
1
1
1
1
1
1
1
1
1
1
1
1
1
1
1
1
1
1
1
1
1
1
1
1
1
1
1
1
1
1
1
1
1
1
1
1
1
1
1
1
1
1
1
1
1
1
1
1
1
1
1
1
1
1
1
1
1
1
1
1
1
1
1
1
1
1
1
1
1
1
1
1
1
1
1
1
1
1
1
1
1
1
1
1
1
1
1
1
1
1
1
1
1
1
1
1
1
1
1
1
1
1
1
1
1
1
1
1
1
1
1
1
1
1
1
1
1
1
1
1
1
1
1
1
1
1
1
1
1
1
1
1
1
1
1
1
1
1
1
1
1
1
1
1
1
1
1
1
1
1
1
1
1
1
1
1
1
1
1
1
1
1
1
1
1
1
1
1
1
1
1
1
1
1
1
1
1
1
1
1
1
1
1
1
1
1
1
1
1
1
1
1
1
1
1
1
1
1
1
1
1
1
1
1
1
1
1
1
1
1
1
1
1
1
1
1
1
1
1
1
1
1
1
1
1
1
1
1
1
1
1
1
1
1
1
1
1
1
1
1
1
1
1
1
1
1
1
1
1
1
1
1
1
1
1
1
1
1
1
1
1
1
1
1
1
1
1
1
1
1
1
1
1
1
1
1
1
1
1
1
1
1
1
1
1
1
1
1
1
1
1
1
1
1
1
1
1
1
1
1
1
1
1
1
1
1
1
1
1
1
1
1
1
1
1
1
1
1
1
1
1
1
1
1
1
1
1
1
1
1
1
1
1
1
1
1
1
1
1
1
1
1
1
1
1
1
1
1
1
1
1
1
1
1
1
1
1
1
1
1
1
1
1
1
1
1
1
1
1
1
1
1
1
1
1
1
1
1
1
1
1
1
1
1
1
1
0.999998
0.999996
0.999996
0.999996
0.999996
0.999995
0.999991
0.99999
0.999991
0.99999
0.999993
0.999998
1
1
1
1
1
1
1
1
1
0.999999
0.999997
0.999985
0.999966
0.999946
0.999929
0.999922
0.999921
0.999921
0.999955
0.999995
0.999999
0.999999
0.999999
1
1
1
1
1
0.999992
0.999961
0.999937
0.999932
0.999931
0.999934
0.999939
0.999942
0.999943
0.999943
0.999943
0.999942
0.999943
0.999949
0.999961
0.99998
0.999996
0.999996
0.999965
0.999898
0.999819
0.999774
0.999779
0.999909
0.999991
0.999996
0.999995
0.999992
0.999991
0.999993
0.999996
0.999997
0.999998
0.999998
0.999998
0.999998
0.999998
0.999998
0.999999
0.999999
0.999999
0.999999
0.999999
0.999998
0.999996
0.999994
0.999994
0.999995
0.999981
0.999959
0.999952
0.999971
0.99999
0.999994
0.999995
0.999996
0.999998
0.999998
0.999996
0.999993
0.999991
0.999988
0.999985
0.999984
0.999983
0.999983
0.999986
0.999986
0.999984
0.999978
0.999977
0.99998
0.999985
0.99999
0.999993
0.999995
0.999995
0.999996
0.999997
0.999999
1
1
1
1
1
1
1
1
1
1
1
0.999999
0.999999
0.999999
0.999999
0.999999
1
1
0.999999
0.999999
0.999998
0.999997
0.999997
0.999995
0.999992
0.999987
0.999983
0.999972
0.999958
0.999946
0.999884
0.999841
0.999841
0.999841
0.999864
0.999955
0.99999
0.999988
0.999985
0.999983
0.999983
0.999983
0.999982
0.999965
0.999944
0.999939
0.999943
0.999961
0.999982
0.999989
0.999987
0.999978
0.99991
0.999816
0.999797
0.99984
0.999952
0.999979
0.999976
0.99997
0.99996
0.999957
0.999949
0.999906
0.999879
0.999879
0.999888
0.99995
0.999941
0.999871
0.999747
0.99953
0.999293
0.999351
0.999682
0.999929
0.999963
0.99996
0.99996
0.999963
0.999961
0.999944
0.999892
0.999862
0.999849
0.999812
0.999812
0.999809
0.999805
0.999802
0.999829
0.999862
0.99989
0.999922
0.999946
0.999959
0.99997
0.99997
0.999969
0.999976
0.999936
0.999913
0.999913
0.999936
0.999979
0.999993
0.999993
0.999991
0.999978
0.999966
0.999959
0.999947
0.999929
0.999933
0.999934
0.999955
0.999974
0.999983
0.999965
0.999788
0.999634
0.999634
0.999634
0.999634
0.999654
0.999852
0.999902
0.999931
0.999935
0.999848
0.999829
0.999917
0.999937
0.999928
0.999935
0.999982
0.999993
0.999993
0.999929
0.999778
0.999736
0.999736
0.999818
0.999938
0.999945
0.999854
0.999779
0.999764
0.999763
0.999639
0.9986
0.997134
0.996212
0.996008
0.99553
0.995965
0.997656
0.998119
0.998435
0.999337
0.999934
0.999973
0.999951
0.999941
0.999946
0.99996
0.999969
0.999975
0.999979
0.999982
0.999984
0.999984
0.999983
0.99996
0.999916
0.999869
0.999831
0.999806
0.999789
0.99977
0.999743
0.999698
0.999631
0.999541
0.999444
0.999382
0.999325
0.999216
0.999092
0.998967
0.998821
0.99864
0.998457
0.998323
0.998232
0.998198
0.99824
0.998643
0.999143
0.999554
0.999793
0.999868
0.999882
0.99987
0.999777
0.999661
0.999524
0.999458
0.999588
0.999796
0.9997
0.99784
0.995342
0.99479
0.994789
0.99535
0.998363
0.999517
0.99976
0.999837
0.99988
0.999921
0.999959
0.99998
0.99998
0.999936
0.998384
0.99518
0.994288
0.994364
0.99442
0.996189
0.998566
0.999709
0.999952
0.999993
0.999999
1
1
0.999997
0.999989
0.999982
0.99998
0.99998
0.999982
0.999982
0.999932
0.999538
0.999002
0.998576
0.998373
0.998932
0.999286
0.99943
0.999634
0.999831
0.999922
0.99992
0.999836
0.999742
0.999688
0.999672
0.99967
0.999672
0.999622
0.999218
0.998651
0.998162
0.997782
0.99784
0.997884
0.994318
0.989059
0.989061
0.989399
0.995538
0.998655
0.999199
0.999324
0.999365
0.998284
0.996826
0.996826
0.996021
0.994436
0.993151
0.992385
0.991876
0.992294
0.996208
0.996769
0.998024
0.999256
0.998496
0.996974
0.991768
0.98627
0.986863
0.99314
0.996598
0.997267
0.997423
0.997293
0.99701
0.996903
0.996881
0.997999
0.999008
0.999416
0.999492
0.999492
0.999489
0.999133
0.998289
0.997006
0.995269
0.99346
0.992622
0.992778
0.99245
0.992531
0.992957
0.988983
0.988984
0.987541
0.986715
0.989133
0.992702
0.993847
0.993285
0.993536
0.995349
0.996382
0.995796
0.992975
0.987176
0.984082
0.986403
0.990749
0.994405
0.997547
0.999486
0.999504
0.998081
0.997114
0.997123
0.998084
0.998201
0.998163
0.997327
0.995961
0.991887
0.987815
0.987837
0.991169
0.993343
0.996156
0.998512
0.998444
0.998223
0.997521
0.996311
0.996454
0.997263
0.997204
0.995125
0.987135
0.982968
0.982968
0.982968
0.989892
0.995798
0.994528
0.993262
0.993909
0.996228
0.99707
0.996741
0.991471
0.983182
0.982293
0.982597
0.987873
0.995644
0.999262
0.999303
0.998316
0.987557
0.9718
0.968628
0.979216
0.995246
0.99812
0.99812
0.993717
0.978015
0.971781
0.973816
0.984464
0.995675
0.99679
0.996936
0.992571
0.977664
0.96956
0.965704
0.967963
0.981564
0.996824
0.998618
0.997046
0.991196
0.985737
0.98412
0.98198
0.984423
0.99392
0.997429
0.995564
0.985637
0.980925
0.980925
0.980925
0.986436
0.992578
0.988388
0.967162
0.957484
0.96132
0.980457
0.995024
0.99873
0.999356
0.998656
0.994799
0.989011
0.981238
0.978285
0.975545
0.976009
0.98921
0.989825
0.990436
0.98845
0.982182
0.980667
0.982667
0.991609
0.995798
0.99657
0.994846
0.993461
0.993565
0.995755
0.998414
0.999214
0.999379
0.999379
0.997094
0.986924
0.980527
0.980527
0.980527
0.982691
0.990265
0.992291
0.987828
0.981371
0.98137
0.984646
0.992144
0.99765
0.999167
0.999268
0.995839
0.984638
0.976921
0.975036
0.975035
0.975036
0.975208
0.989372
0.99228
0.984943
0.9838
0.985945
0.991527
0.99421
0.989643
0.981473
0.976576
0.976523
0.977572
0.992758
0.997774
0.997762
0.995034
0.985958
0.971694
0.967399
0.967399
0.975228
0.986483
0.99374
0.996612
0.997628
0.998297
0.998448
0.994172
0.979295
0.97451
0.974511
0.974799
0.979166
0.988403
0.995147
0.996147
0.992351
0.98862
0.988619
0.98862
0.988619
0.993207
0.997772
0.995659
0.994697
0.99565
0.996836
0.997145
0.992672
0.978829
0.97189
0.971888
0.973477
0.990853
0.993053
0.994091
0.995164
0.995554
0.995355
0.993532
0.991931
0.991922
0.991449
0.98951
0.989391
0.989203
0.988461
0.98858
0.993394
0.996328
0.994256
0.984464
0.976974
0.977033
0.985065
0.988151
0.991058
0.996888
0.999354
0.998577
0.995212
0.989039
0.985207
0.985207
0.985104
0.986464
0.995308
0.996043
0.995749
0.993587
0.988293
0.978418
0.97696
0.976962
0.97671
0.97809
0.978037
0.989842
0.987793
0.968312
0.925076
0.903971
0.975514
0.993776
0.996868
0.99741
0.998036
0.996681
0.991467
0.987216
0.985645
0.98369
0.981931
0.987187
0.992939
0.991641
0.966181
0.93335
0.926111
0.935636
0.975018
0.995125
0.997298
0.995864
0.995205
0.995645
0.996431
0.995522
0.993737
0.989583
0.982287
0.980212
0.982022
0.98466
0.985998
0.982904
0.969915
0.959627
0.96097
0.981654
0.994627
0.994926
0.992519
0.982218
0.960922
0.946527
0.956014
0.972367
0.978878
0.992739
0.99683
0.99565
0.992791
0.99102
0.978733
0.956752
0.937956
0.957144
0.983018
0.995432
0.996504
0.996383
0.996907
0.997749
0.995451
0.993709
0.993826
0.994811
0.992979
0.969029
0.935475
0.915339
0.91166
0.911735
0.956715
0.993713
0.998769
0.999401
0.999476
0.999392
0.999209
0.999058
0.998666
0.989479
0.97064
0.951767
0.946169
0.946172
0.944013
0.943984
0.95231
0.978496
0.99505
0.997877
0.995271
0.993446
0.994007
0.9956
0.996021
0.989257
0.966603
0.951884
0.951884
0.951884
0.967697
0.990412
0.988524
0.984888
0.979137
0.964011
0.959789
0.958673
0.960161
0.964038
0.965884
0.961901
0.954465
0.954465
0.954465
0.954465
0.97546
0.988616
0.970435
0.962732
0.961866
0.961869
0.959186
0.947691
0.94679
0.94679
0.962499
0.990124
0.982825
0.973544
0.972382
0.974516
0.978348
0.979125
0.979095
0.977456
0.97498
0.974376
0.975805
0.98467
0.985299
0.98404
0.972215
0.971718
0.984078
0.995875
0.99778
0.99778
0.997776
0.992609
0.980319
0.970904
0.966839
0.966836
0.973184
0.995512
0.997032
0.995111
0.991879
0.978837
0.951025
0.948466
0.948466
0.951356
0.987006
0.998025
0.998244
0.998502
0.99885
0.998395
0.975453
0.932621
0.906069
0.904337
0.935307
0.977657
0.988684
0.994014
0.994305
0.991528
0.986947
0.987653
0.989552
0.991598
0.983126
0.942703
0.905846
0.897549
0.8989
0.943729
0.985971
0.995412
0.990652
0.954746
0.918906
0.917616
0.961692
0.995915
0.999054
0.998589
0.976396
0.931062
0.894894
0.891655
0.948647
0.985212
0.990198
0.991247
0.981919
0.957999
0.935978
0.926555
0.925625
0.936018
0.942413
0.942363
0.940974
0.940977
0.942072
0.941789
0.935324
0.934669
0.94568
0.958488
0.964395
0.968335
0.973587
0.978578
0.978568
0.942352
0.868462
0.892854
0.931564
0.94016
0.944663
0.947815
0.948723
0.948486
0.934479
0.910839
0.89826
0.897638
0.897761
0.897751
0.883376
0.862925
0.86295
0.863292
0.903209
0.922276
0.922279
0.924319
0.923014
0.929131
0.939063
0.948158
0.956568
0.956237
0.903135
0.842277
0.887879
0.946914
0.953902
0.958142
0.939076
0.897082
0.87348
0.873173
0.887227
0.938448
0.94595
0.945149
0.945536
0.948099
0.959345
0.969535
0.971182
0.971181
0.97078
0.973181
0.9737
0.960272
0.94541
0.934309
0.920649
0.907831
0.901225
0.899608
0.89907
0.899604
0.901807
0.904219
0.905239
0.899747
0.882467
0.863809
0.846928
0.825829
0.800432
0.790145
0.789906
0.791946
0.793267
0.788752
0.781593
0.787453
0.803885
0.81655
0.82009
0.809899
0.784122
0.776482
0.772515
0.762914
0.731469
0.697666
0.667527
0.652652
0.645433
0.63636
0.660566
0.673802
0.664159
0.62724
0.633033
0.629634
0.57856
0.530518
0.520907
0.527827
0.562139
0.550272
0.513678
0.496193
0.47522
0.443816
0.457971
0.457823
0.480765
0.482794
0.481291
0.554222
0.593961
0.460303
0.316871
0.294111
0.282939
0.245238
0.220308
0.170263
0.122172
0.0645951
0.0753811
0.151407
0.207706
0.0807748
0.0494834
0.0491953
0.0363879
0.059832
0.0770886
0.0461489
0.0314751
0.035917
0.0397115
0.0373807
0.0356832
0.169366
0.18429
0.122029
0.069854
0.0672277
0.0612207
1
1
1
1
1
1
1
1
1
1
1
1
1
1
1
1
1
1
1
1
1
1
1
1
1
1
1
1
1
1
1
1
1
1
1
1
1
1
1
1
1
1
1
1
1
1
1
1
1
1
1
1
1
1
1
1
1
1
1
1
1
1
1
1
1
1
1
1
1
1
1
1
1
1
1
1
1
1
1
1
1
1
1
1
1
1
1