/*--------------------------------*- C++ -*----------------------------------*\
| =========                 |                                                 |
| \\      /  F ield         | foam-extend: Open Source CFD                    |
|  \\    /   O peration     | Version:     3.1                                |
|   \\  /    A nd           | Web:         http://www.extend-project.de       |
|    \\/     M anipulation  |                                                 |
\*---------------------------------------------------------------------------*/
FoamFile
{
    version     2.0;
    format      ascii;
    class       volScalarField;
    location    "120";
    object      k;
}
// * * * * * * * * * * * * * * * * * * * * * * * * * * * * * * * * * * * * * //

dimensions      [0 2 -2 0 0 0 0];

internalField   nonuniform List<scalar> 
212248
(
2.60847e-06
2.11382e-06
1.90086e-06
1.83428e-06
1.85747e-06
1.96269e-06
2.14708e-06
2.42649e-06
2.81818e-06
3.34302e-06
4.03287e-06
4.93171e-06
6.09603e-06
7.5975e-06
9.52193e-06
1.19693e-05
1.50584e-05
1.89248e-05
2.37201e-05
2.96105e-05
3.67739e-05
4.53957e-05
5.5661e-05
6.77445e-05
8.18105e-05
9.8003e-05
0.00011644
0.000137194
0.000160286
0.000185677
0.000213258
0.000242849
0.000274194
0.000306949
0.000340692
0.00037493
0.000409076
0.000442491
0.000474484
0.000504314
0.000531228
0.000554519
0.000576077
0.000597513
0.000618821
0.00063998
0.000660968
0.000681764
0.000702347
0.000722698
0.000742798
0.000762628
0.000782169
0.000801403
0.000820314
0.000838883
0.000857095
0.000874933
0.000892381
0.000909424
0.000926047
0.000942234
0.000957972
0.000973247
0.000988044
0.00100235
0.00101615
0.00102944
0.0010422
0.00105442
0.00106608
0.00107718
0.0010877
0.00109763
0.00110696
0.00111569
0.00112379
0.00113127
0.0011381
0.00114427
0.00114978
0.0011546
0.00115872
0.00116212
0.00116476
0.00116661
0.00116762
0.00116777
0.00116697
0.00116505
0.0011619
0.00115733
0.00115108
0.00114285
0.00113215
0.00111834
0.0011006
0.00107783
0.0010486
0.00101114
0.000963296
0.000902519
0.000826022
0.000731037
0.000615599
0.000481314
0.000363448
0.000273832
0.000206208
0.000155461
0.000117494
8.91177e-05
6.78963e-05
5.19973e-05
4.00521e-05
3.10453e-05
2.42255e-05
1.90373e-05
1.507e-05
1.20199e-05
9.6621e-06
7.82901e-06
6.39533e-06
5.26725e-06
4.37425e-06
3.66314e-06
3.09352e-06
2.63456e-06
2.2624e-06
1.95868e-06
1.70995e-06
1.50525e-06
1.33599e-06
1.1954e-06
1.07817e-06
9.80152e-07
8.97855e-07
8.28475e-07
7.69913e-07
7.20486e-07
6.78844e-07
6.43902e-07
6.14785e-07
5.90804e-07
5.71425e-07
5.56234e-07
5.44934e-07
5.37324e-07
5.33328e-07
5.32892e-07
5.3606e-07
5.4315e-07
5.54458e-07
5.70478e-07
5.91911e-07
6.19749e-07
6.55365e-07
7.00594e-07
7.57907e-07
8.30702e-07
9.23539e-07
1.04245e-06
1.19538e-06
1.39275e-06
1.64796e-06
1.97822e-06
2.40523e-06
2.9561e-06
3.66402e-06
4.56895e-06
5.71778e-06
7.16597e-06
8.97782e-06
1.12241e-05
1.39798e-05
1.73288e-05
2.13603e-05
2.61666e-05
3.18419e-05
3.84795e-05
4.61695e-05
5.49979e-05
6.50406e-05
7.63604e-05
8.90057e-05
0.000103006
0.00011837
0.000135087
0.000153128
0.000172436
0.000192925
0.000214487
0.000237
0.000260313
0.00028425
0.000308615
0.000333203
0.000357789
0.000382131
0.000405987
0.000429125
0.000451306
0.00047229
0.000491837
0.000509699
0.000525642
0.000539473
0.000551651
0.000563576
0.000575287
0.000586782
0.000598059
0.000609118
0.000619958
0.000630579
0.00064098
0.000651162
0.000661124
0.000670867
0.000680392
0.000689699
0.000698788
0.000707661
0.000716319
0.000724763
0.000732994
0.000741012
0.00074882
0.000756419
0.00076381
0.000770993
0.000777972
0.000784746
0.000791318
0.000797689
0.000803859
0.000809831
0.000815605
0.000821183
0.000826567
0.000831757
0.000836754
0.00084156
0.000846176
0.000850604
0.000854843
0.000858894
0.000862759
0.000866439
0.000869934
0.000873245
0.000876374
0.000879319
0.000882082
0.000884663
0.000887062
0.000889279
0.000891314
0.000893167
0.000894838
0.000896326
0.00089763
0.000898746
0.000899674
0.000900409
0.000900947
0.000901285
0.000901425
0.00090135
0.000901052
0.000900522
0.000899749
0.000898731
0.000897427
0.000895816
0.000893889
0.000891609
0.000888929
0.000885791
0.000882121
0.000877825
0.000872794
0.000866897
0.000859971
0.000851804
0.000842136
0.000830659
0.000817006
0.000800723
0.00078126
0.000757997
0.000730163
0.000696825
0.000656909
0.000609186
0.000552469
0.000486047
0.000415714
0.000354141
0.00030082
0.000254917
0.000215727
0.000182585
0.00015473
0.000131292
0.000111456
9.46113e-05
8.03433e-05
6.82794e-05
5.80851e-05
4.95976e-05
4.24279e-05
3.63861e-05
3.12851e-05
2.69752e-05
2.33298e-05
2.02427e-05
1.76247e-05
1.54009e-05
1.35083e-05
1.18945e-05
1.05156e-05
9.33512e-06
8.3224e-06
7.45207e-06
6.70299e-06
6.05744e-06
5.50052e-06
5.01957e-06
4.60395e-06
4.2447e-06
3.9343e-06
3.66651e-06
3.43611e-06
3.23882e-06
3.071e-06
2.92945e-06
2.81149e-06
2.71504e-06
2.63851e-06
2.58064e-06
2.54042e-06
2.51712e-06
2.50877e-06
2.51735e-06
2.54179e-06
2.58174e-06
2.6372e-06
2.70805e-06
2.79423e-06
2.89563e-06
3.01184e-06
3.14236e-06
3.28633e-06
3.44247e-06
3.60927e-06
3.78465e-06
3.96621e-06
4.15178e-06
4.33833e-06
4.52309e-06
4.70347e-06
4.87785e-06
5.04364e-06
5.19792e-06
5.33918e-06
5.46593e-06
5.57773e-06
5.67589e-06
5.7622e-06
5.83745e-06
5.90307e-06
5.96114e-06
6.01426e-06
6.06529e-06
6.11526e-06
6.16869e-06
6.22631e-06
6.29182e-06
6.36749e-06
6.45395e-06
6.55895e-06
6.68694e-06
6.83238e-06
6.99761e-06
7.18916e-06
7.40401e-06
7.65334e-06
7.93828e-06
8.25581e-06
8.61631e-06
9.02164e-06
9.47012e-06
9.96609e-06
1.05199e-05
1.11397e-05
1.18363e-05
1.26167e-05
1.34931e-05
1.44784e-05
1.55927e-05
1.68541e-05
1.82796e-05
1.98979e-05
2.174e-05
2.38379e-05
2.6229e-05
2.89581e-05
3.2082e-05
3.58131e-05
4.15469e-05
4.83593e-05
5.5508e-05
6.29835e-05
7.13878e-05
8.08279e-05
9.13334e-05
0.000102902
0.000115498
0.000129046
0.000143426
0.00015847
0.000173961
0.000189644
0.000205211
0.00022033
0.000234726
0.000248992
0.000263335
0.000277731
0.000292153
0.000306573
0.000320957
0.000335282
0.000349531
0.00036368
0.000377688
0.00039154
0.000405239
0.000418775
0.000432123
0.000445236
0.000458102
0.000470753
0.000483177
0.000495321
0.0005072
0.000518797
0.000530105
0.000541118
0.000551795
0.000562181
0.000572283
0.0005821
0.000591618
0.000600807
0.000609648
0.000618191
0.000626446
0.000634337
0.000641788
0.00064895
0.000655476
0.000661663
0.000666464
0.00067158
0.000674239
0.00067734
0.000674573
0.000657567
0.000669459
0.000695839
0.000711678
0.000713913
0.000715142
0.000718081
0.000723494
0.000730733
0.000736515
0.000739632
0.000740981
0.00074125
0.000740965
0.000740494
0.00073997
0.000739138
0.000737737
0.000735639
0.00073279
0.000729145
0.000724622
0.000719093
0.00071239
0.000704301
0.000694554
0.000682798
0.000668592
0.000651394
0.000630549
0.000605279
0.000574692
0.00053783
0.000493699
0.000441366
0.000380276
0.000314222
0.000258566
0.000213178
0.000176206
0.000146167
0.000121776
0.000101897
8.56515e-05
7.23792e-05
6.15218e-05
5.2583e-05
4.51825e-05
3.90513e-05
3.39688e-05
2.97232e-05
2.61506e-05
2.31451e-05
2.06175e-05
1.84763e-05
1.66472e-05
1.50861e-05
1.3756e-05
1.26158e-05
1.16298e-05
1.07779e-05
1.00441e-05
9.40881e-06
8.85422e-06
8.372e-06
7.95611e-06
7.5963e-06
7.28289e-06
7.01104e-06
6.77882e-06
6.58296e-06
6.41564e-06
6.27364e-06
6.15802e-06
6.06821e-06
5.99776e-06
5.94371e-06
5.90873e-06
5.89351e-06
5.89352e-06
5.90548e-06
5.93157e-06
5.97364e-06
6.03038e-06
6.09797e-06
6.17669e-06
6.26922e-06
6.3757e-06
6.49306e-06
6.62083e-06
6.7609e-06
6.91481e-06
7.08054e-06
7.25727e-06
7.44672e-06
7.6502e-06
7.86712e-06
8.09757e-06
8.34204e-06
8.60129e-06
8.87644e-06
9.16793e-06
9.47581e-06
9.80073e-06
1.01444e-05
1.05082e-05
1.08929e-05
1.12987e-05
1.17268e-05
1.21795e-05
1.26585e-05
1.31631e-05
1.36925e-05
1.42499e-05
1.48425e-05
1.54925e-05
1.67088e-05
1.81975e-05
1.94164e-05
2.06349e-05
2.19858e-05
2.3473e-05
2.5122e-05
2.69715e-05
2.904e-05
3.1327e-05
3.38547e-05
3.66807e-05
3.98531e-05
4.33706e-05
4.72288e-05
5.14875e-05
5.62351e-05
6.14823e-05
6.71818e-05
7.33664e-05
8.01272e-05
8.75211e-05
9.54584e-05
0.000103864
0.000112781
0.000122297
0.000132322
0.000142653
0.000153248
0.000164129
0.000175251
0.000186368
0.000197252
0.000207939
0.000218317
0.000228255
0.000237545
0.000246013
0.000253631
0.000260386
0.000266242
0.000271789
0.000277188
0.000282502
0.00028777
0.000292963
0.000298044
0.000303029
0.000307959
0.000312839
0.000317637
0.000322345
0.000326984
0.000331567
0.00033608
0.00034051
0.000344861
0.000349145
0.000353357
0.000357478
0.000361496
0.00036541
0.000369227
0.000372945
0.000376564
0.000380087
0.000383505
0.000386797
0.000389954
0.000392976
0.000395858
0.000398602
0.000401207
0.000403663
0.000405967
0.000408118
0.000410104
0.000411901
0.000413496
0.000414889
0.000416067
0.000416997
0.000417649
0.000418016
0.000418085
0.00041779
0.000417081
0.000415926
0.000414289
0.00041208
0.000409186
0.000405517
0.000400971
0.000395376
0.000388519
0.000380227
0.000370312
0.000358451
0.000344205
0.000327165
0.000307296
0.000287446
0.000268259
0.000249765
0.000232093
0.000215315
0.000199388
0.000184276
0.00017002
0.000156673
0.000144215
0.000132583
0.000121747
0.000111709
0.000102457
9.3941e-05
8.60957e-05
7.88766e-05
7.22614e-05
6.62222e-05
6.07145e-05
5.56903e-05
5.11113e-05
4.69478e-05
4.31692e-05
3.97416e-05
3.66327e-05
3.38135e-05
3.12574e-05
2.89428e-05
2.68495e-05
2.49565e-05
2.32441e-05
2.16943e-05
2.02926e-05
1.90264e-05
1.78833e-05
1.68504e-05
1.59164e-05
1.50728e-05
1.43135e-05
1.36299e-05
1.30139e-05
1.24592e-05
1.19608e-05
1.15164e-05
1.11217e-05
1.07712e-05
1.04605e-05
1.01869e-05
9.94881e-06
9.7438e-06
9.56891e-06
9.42117e-06
9.29982e-06
9.20524e-06
9.13677e-06
9.09249e-06
9.0695e-06
9.06734e-06
9.08751e-06
9.13233e-06
9.19689e-06
9.28224e-06
9.38727e-06
9.51455e-06
9.66467e-06
9.83729e-06
1.00324e-05
1.0248e-05
1.04902e-05
1.0757e-05
1.10482e-05
1.13692e-05
1.17245e-05
1.21137e-05
1.25404e-05
1.30029e-05
1.35056e-05
1.4053e-05
1.46466e-05
1.52965e-05
1.60053e-05
1.67753e-05
1.76157e-05
1.85398e-05
1.9552e-05
2.06677e-05
2.18955e-05
2.32469e-05
2.47455e-05
2.64067e-05
2.82467e-05
3.03002e-05
3.25734e-05
3.51132e-05
3.7941e-05
4.10879e-05
4.45864e-05
4.84672e-05
5.27692e-05
5.75271e-05
6.28996e-05
7.053e-05
8.02901e-05
9.10839e-05
0.000102683
0.000115027
0.000128087
0.000141849
0.0001563
0.000171415
0.000187162
0.000203502
0.000220404
0.000237842
0.000255795
0.000274235
0.000293136
0.000312475
0.00033223
0.00035237
0.000372865
0.000393674
0.00041476
0.000436099
0.000457666
0.000479435
0.000501378
0.00052348
0.000545724
0.000568085
0.00059053
0.000613031
0.000635563
0.000658103
0.000680622
0.000703094
0.000725491
0.00074778
0.000769928
0.000791907
0.00081369
0.000835254
0.000856576
0.000877636
0.000898408
0.000918865
0.000938986
0.000958759
0.000978145
0.000997091
0.00101558
0.00103357
0.00105105
0.00106797
0.00108431
0.00110005
0.00111516
0.00112962
0.00114338
0.00115643
0.00116876
0.00118036
0.00119123
0.00120137
0.00121081
0.00121957
0.00122752
0.00123459
0.00124089
0.00124643
0.00125112
0.00125495
0.00125802
0.00126029
0.0012617
0.00126224
0.00126194
0.00126068
0.0012583
0.00125475
0.00125002
0.00124411
0.00123701
0.0012287
0.00121913
0.00120824
0.00119597
0.00118221
0.00116684
0.0011497
0.00113058
0.00110916
0.00108508
0.00105785
0.00102686
0.000991197
0.000949627
0.000900605
0.000842255
0.00077239
0.000688614
0.000588632
0.000471361
0.000346308
0.000251668
0.000184322
0.00013638
0.000102082
7.74199e-05
5.95378e-05
4.64266e-05
3.67547e-05
2.95542e-05
2.41422e-05
2.00423e-05
1.68984e-05
1.4467e-05
1.25711e-05
1.10803e-05
9.90627e-06
8.97715e-06
8.24281e-06
7.66312e-06
7.20963e-06
6.85705e-06
6.59107e-06
6.40326e-06
6.28384e-06
6.22263e-06
6.21476e-06
6.24932e-06
6.32236e-06
6.43396e-06
6.59089e-06
6.78553e-06
7.01466e-06
7.28653e-06
7.60106e-06
7.95584e-06
8.35264e-06
8.80177e-06
9.30332e-06
9.85251e-06
1.04567e-05
1.11297e-05
1.18694e-05
1.26731e-05
1.35513e-05
1.45252e-05
1.61645e-05
1.82116e-05
1.99294e-05
2.17407e-05
2.37345e-05
2.59187e-05
2.82919e-05
3.08575e-05
3.3621e-05
3.65713e-05
3.96969e-05
4.29958e-05
4.64448e-05
5.00231e-05
5.37131e-05
5.74698e-05
6.12599e-05
6.50511e-05
6.87969e-05
7.24625e-05
7.59971e-05
7.93594e-05
8.25323e-05
8.54877e-05
8.82142e-05
9.0722e-05
9.30155e-05
9.50996e-05
9.69837e-05
9.86815e-05
0.000100238
0.000101687
0.000103035
0.000104289
0.000105484
0.000106681
0.000107912
0.000109169
0.000110476
0.000111856
0.00011329
0.000114766
0.000116341
0.000118154
0.000120238
0.000122369
0.000124585
0.000126928
0.0001294
0.000131917
0.000134416
0.00013693
0.000139389
0.000141756
0.000144077
0.000146311
0.000148387
0.00015032
0.000152139
0.000153896
0.000155517
0.000156876
0.000157898
0.00015852
0.000158673
0.000158379
0.000157707
0.000156728
0.000155425
0.000153904
0.000152157
0.000150185
0.000148109
0.000145966
0.000143791
0.000141597
0.000139313
0.000136913
0.000134404
0.000131747
0.000128982
0.000126108
0.000123142
0.00012014
0.000117172
0.000114242
0.000111289
0.000108358
0.000105498
0.000102721
0.000100033
9.73882e-05
9.47667e-05
9.20869e-05
8.94052e-05
8.66953e-05
8.40587e-05
8.15694e-05
7.92361e-05
7.70581e-05
7.50456e-05
7.31761e-05
7.14157e-05
6.97394e-05
6.81123e-05
6.65078e-05
6.49014e-05
6.32392e-05
6.1462e-05
5.96418e-05
5.78928e-05
5.62788e-05
5.4853e-05
5.36244e-05
5.25815e-05
5.16954e-05
5.09121e-05
5.01878e-05
4.95308e-05
4.89636e-05
4.84788e-05
4.8067e-05
4.77161e-05
4.74315e-05
4.72203e-05
4.70861e-05
4.70346e-05
4.70637e-05
4.71722e-05
4.73612e-05
4.76301e-05
4.79722e-05
4.83724e-05
4.88217e-05
4.93186e-05
4.98666e-05
5.0465e-05
5.11122e-05
5.18045e-05
5.25367e-05
5.33024e-05
5.41007e-05
5.4925e-05
5.57705e-05
5.66271e-05
5.74928e-05
5.83662e-05
5.92528e-05
6.01411e-05
6.10282e-05
6.19106e-05
6.2784e-05
6.36417e-05
6.44768e-05
6.52792e-05
6.60362e-05
6.67369e-05
6.73771e-05
6.7948e-05
6.84368e-05
6.88332e-05
6.91317e-05
6.9328e-05
6.94232e-05
6.94061e-05
6.92664e-05
6.89987e-05
6.86082e-05
6.81002e-05
6.74767e-05
6.67356e-05
6.58816e-05
6.4937e-05
6.39052e-05
6.2795e-05
6.15956e-05
6.03117e-05
5.89607e-05
5.75683e-05
5.61261e-05
5.46343e-05
5.31052e-05
5.15545e-05
4.99867e-05
4.83974e-05
4.67907e-05
4.51884e-05
4.36075e-05
4.20557e-05
4.05379e-05
3.9062e-05
3.76328e-05
3.62508e-05
3.49158e-05
3.36306e-05
3.24034e-05
3.12401e-05
3.01442e-05
2.91188e-05
2.81672e-05
2.72919e-05
2.64949e-05
2.57767e-05
2.51365e-05
2.45763e-05
2.40997e-05
2.37068e-05
2.34017e-05
2.31828e-05
2.30539e-05
2.30263e-05
2.30977e-05
2.32845e-05
2.35862e-05
2.40204e-05
2.46032e-05
2.53419e-05
2.6264e-05
2.73892e-05
2.87645e-05
3.04175e-05
3.24132e-05
3.48038e-05
3.76814e-05
4.11368e-05
4.52668e-05
5.02085e-05
5.60583e-05
6.29479e-05
7.09805e-05
8.02287e-05
9.07418e-05
0.00010411
0.000123674
0.000146091
0.000170456
0.000196592
0.000224387
0.000253727
0.000284487
0.000316551
0.000349816
0.000384169
0.000419501
0.000455711
0.000492708
0.000530395
0.000568669
0.000607443
0.000646639
0.000686184
0.000725997
0.000765999
0.000806119
0.000846276
0.000886388
0.00092638
0.000966177
0.00100569
0.00104485
0.00108358
0.0011218
0.00115945
0.00119649
0.00123283
0.00126835
0.00130302
0.00133686
0.00136981
0.00140182
0.00143295
0.00146323
0.00149272
0.0015215
0.00154982
0.00157791
0.00160613
0.00163518
0.0016664
0.00170198
0.00173914
0.00177417
0.00180712
0.00183792
0.0018665
0.00189284
0.00191688
0.00193831
0.00195649
0.00197097
0.00198158
0.00198837
0.0019914
0.00199096
0.00198666
0.00197803
0.00196491
0.00194743
0.00192531
0.00189919
0.00186907
0.00183496
0.0017969
0.00175501
0.00170956
0.00166086
0.00160926
0.00155513
0.00149903
0.00144173
0.00138399
0.001321
0.00124686
0.0011592
0.00105596
0.000935293
0.000795941
0.000638386
0.00046756
0.000319033
0.000222174
0.000159106
0.000117073
8.83734e-05
6.84043e-05
5.42507e-05
4.39944e-05
3.64954e-05
3.09403e-05
2.67058e-05
2.34253e-05
2.08982e-05
1.8925e-05
1.73531e-05
1.60953e-05
1.50976e-05
1.4313e-05
1.36917e-05
1.32007e-05
1.28332e-05
1.2562e-05
1.23699e-05
1.2248e-05
1.2176e-05
1.21431e-05
1.21424e-05
1.21888e-05
1.22816e-05
1.23928e-05
1.25034e-05
1.26242e-05
1.27403e-05
1.28632e-05
1.2984e-05
1.31032e-05
1.32111e-05
1.33034e-05
1.33771e-05
1.34295e-05
1.34353e-05
1.33654e-05
1.31868e-05
1.41354e-05
1.4542e-05
1.4615e-05
1.46829e-05
1.47473e-05
1.48135e-05
1.48964e-05
1.50026e-05
1.51277e-05
1.52718e-05
1.54462e-05
1.56639e-05
1.59301e-05
1.62369e-05
1.6585e-05
1.6979e-05
1.74295e-05
1.79242e-05
1.84425e-05
1.90163e-05
1.96652e-05
2.0391e-05
2.12379e-05
2.22671e-05
2.35194e-05
2.50282e-05
2.68285e-05
2.89579e-05
3.14519e-05
3.43411e-05
3.76647e-05
4.14887e-05
4.5913e-05
5.10337e-05
5.68956e-05
6.35514e-05
7.10911e-05
7.9626e-05
8.92829e-05
0.000100172
0.00011252
0.000126745
0.000143476
0.000163394
0.000187128
0.000215254
0.000248385
0.000284328
0.000314228
0.000337604
0.000355506
0.000369302
0.000380085
0.00038845
0.000394769
0.000399536
0.000403217
0.00040597
0.000407627
0.000408032
0.000407329
0.000405699
0.000403479
0.000400909
0.00039809
0.000394982
0.000391095
0.000386336
0.000381293
0.000376549
0.000372267
0.00036881
0.000366497
0.000365352
0.000365131
0.000365477
0.000366069
0.000366716
0.000367583
0.000369115
0.000371204
0.000372911
0.00037348
0.000372399
0.000368718
0.000362042
0.000352864
0.0003416
0.000328427
0.000316147
0.000306912
0.000300792
0.000296516
0.000293026
0.0002899
0.000286783
0.000282992
0.000279261
0.000276216
0.000274424
0.000274239
0.000275713
0.000278753
0.000283153
0.000289245
0.000297192
0.000306635
0.000316441
0.000325739
0.000334224
0.000342167
0.000350084
0.00035813
0.000365824
0.000373103
0.000380001
0.000386133
0.000390328
0.000391477
0.000385776
0.000367328
0.00033093
0.000284563
0.000244033
0.000217305
0.000204383
0.000202199
0.000208018
0.000223545
0.000250449
0.000293335
0.000351378
0.000402616
0.000432126
0.000443044
0.000443372
0.000424824
0.000367036
0.000271274
0.000198727
0.000151191
0.000120619
0.000100351
8.65581e-05
7.74886e-05
7.23342e-05
7.00437e-05
6.84822e-05
6.57409e-05
5.86693e-05
4.56775e-05
3.3464e-05
2.83242e-05
2.87279e-05
3.4111e-05
4.52399e-05
6.64413e-05
0.000107791
0.000183041
0.000278641
0.000344984
0.000376231
0.000389479
0.000393491
0.000393237
0.00038821
0.000378987
0.000354011
0.000315912
0.000261887
0.000210077
0.00015951
0.00011779
8.592e-05
6.14439e-05
4.13933e-05
2.41465e-05
1.04862e-05
3.94044e-06
2.17795e-06
2.20279e-06
4.60565e-06
1.51015e-05
5.28163e-05
0.000176848
0.000353428
0.000410354
0.000421283
0.000418369
0.000403338
0.000382793
0.00035785
0.000334583
0.000317998
0.000312497
0.000325008
0.000358308
0.000416234
0.000496596
0.000572838
0.00063744
0.000691403
0.000734434
0.000766626
0.000788073
0.000799094
0.000802366
0.000797048
0.000776023
0.000744607
0.000701072
0.000638423
0.000548519
0.000415686
0.000269533
0.000174434
0.000116909
8.10914e-05
5.66306e-05
3.83134e-05
2.46219e-05
1.52094e-05
9.55614e-06
6.60232e-06
4.99077e-06
4.11027e-06
3.45766e-06
3.06587e-06
2.78139e-06
2.46421e-06
2.27531e-06
2.16834e-06
2.13425e-06
2.169e-06
2.26469e-06
2.4104e-06
2.57898e-06
2.84594e-06
3.18659e-06
3.48944e-06
3.71177e-06
3.85695e-06
3.86169e-06
4.01495e-06
4.24941e-06
5.03262e-06
6.57488e-06
9.3562e-06
1.15898e-05
1.25907e-05
1.28978e-05
1.25175e-05
1.18167e-05
1.14668e-05
1.20471e-05
1.33929e-05
1.5286e-05
1.75573e-05
2.00829e-05
2.32096e-05
2.75302e-05
3.37864e-05
4.24414e-05
5.29737e-05
6.52782e-05
7.78363e-05
8.51578e-05
8.53353e-05
7.87446e-05
6.94346e-05
6.28935e-05
5.74381e-05
5.32211e-05
5.20759e-05
5.42137e-05
5.76811e-05
6.00428e-05
6.00229e-05
5.74594e-05
5.2253e-05
4.37649e-05
3.10479e-05
1.89228e-05
1.12792e-05
7.18209e-06
5.14552e-06
4.73678e-06
6.08269e-06
9.05099e-06
1.1944e-05
1.39831e-05
1.51577e-05
1.57943e-05
1.61308e-05
1.58237e-05
1.47948e-05
1.32136e-05
1.18403e-05
1.11738e-05
1.11133e-05
1.14265e-05
1.23142e-05
1.36645e-05
1.5266e-05
1.66257e-05
1.73063e-05
1.78965e-05
1.86018e-05
1.96033e-05
2.02424e-05
1.99299e-05
1.80349e-05
1.5649e-05
1.52943e-05
1.5701e-05
1.60184e-05
1.6934e-05
1.69632e-05
1.69061e-05
1.7489e-05
1.84702e-05
2.01269e-05
2.18055e-05
2.27889e-05
2.34186e-05
2.36442e-05
2.38693e-05
2.37364e-05
2.33833e-05
2.2703e-05
2.23812e-05
2.30182e-05
2.48891e-05
2.85745e-05
3.43799e-05
4.21279e-05
5.12387e-05
5.78064e-05
6.14791e-05
6.45948e-05
6.76127e-05
7.45927e-05
7.95747e-05
8.66671e-05
0.000111678
0.000152129
0.000188819
0.000222773
0.00025019
0.000265075
0.000270916
0.000262141
0.000255298
0.000253597
0.00025504
0.000257535
0.000260065
0.000263926
0.000270057
0.000279993
0.000294679
0.000317936
0.000355543
0.000403341
0.000448869
0.000495292
0.000569104
0.000664873
0.000733122
0.00078206
0.000831147
0.000890702
0.000934082
0.000953129
0.000955334
0.000944575
0.000913899
0.000884066
0.000859429
0.000838843
0.000821104
0.000804284
0.000785909
0.000762959
0.000741839
0.000723849
0.000707967
0.0006934
0.000679617
0.000666446
0.000655002
0.000646638
0.000640984
0.00063702
0.000635914
0.000638616
0.000646072
0.000652363
0.000654258
0.00065221
0.000647177
0.000641995
0.000629716
0.000611
0.000593039
0.000576716
0.000562485
0.000551179
0.000542096
0.000533791
0.000525307
0.000514716
0.000500551
0.000484893
0.000468003
0.000444742
0.000406723
0.00034385
0.000284466
0.000269065
0.000319538
0.000432444
0.000526123
0.000585223
0.000615393
0.000624638
0.00062292
0.000608233
0.000585758
0.000565268
0.000546016
0.000526801
0.000506483
0.000482629
0.000452842
0.000416024
0.000367289
0.00028317
0.000201609
0.000144045
0.00010838
8.9511e-05
8.15401e-05
8.02088e-05
8.62795e-05
9.52699e-05
9.65374e-05
8.83412e-05
6.95589e-05
4.65403e-05
2.79331e-05
1.58294e-05
8.77737e-06
4.93405e-06
3.13376e-06
2.42609e-06
2.10024e-06
1.78979e-06
1.49913e-06
1.42978e-06
1.604e-06
2.00823e-06
2.26616e-06
2.48339e-06
2.999e-06
4.37123e-06
5.60103e-06
6.25068e-06
6.78753e-06
7.84958e-06
9.33327e-06
1.05567e-05
1.15121e-05
1.21781e-05
1.24101e-05
1.17559e-05
1.00169e-05
8.83827e-06
8.03593e-06
7.60798e-06
7.54645e-06
8.00532e-06
9.17149e-06
1.10426e-05
1.20011e-05
1.19426e-05
1.10547e-05
8.58154e-06
5.46703e-06
3.72912e-06
3.01768e-06
2.82212e-06
3.03892e-06
3.76639e-06
4.67001e-06
5.41625e-06
6.67181e-06
9.01142e-06
1.20424e-05
1.43045e-05
1.46026e-05
1.13234e-05
7.9283e-06
3.3297e-06
9.5427e-07
5.06684e-07
7.23801e-07
2.73036e-06
4.54461e-06
4.88253e-06
4.77352e-06
5.62023e-06
6.83314e-06
7.91444e-06
8.35029e-06
8.17398e-06
7.07469e-06
5.73653e-06
5.05482e-06
4.49957e-06
3.80159e-06
2.60088e-06
2.24024e-06
3.2049e-06
4.90948e-06
5.35283e-06
4.98081e-06
4.54198e-06
4.09199e-06
3.55515e-06
3.20072e-06
2.88052e-06
2.76829e-06
2.67111e-06
2.7677e-06
2.76881e-06
2.76169e-06
2.38857e-06
2.03866e-06
1.75596e-06
1.59184e-06
1.37957e-06
1.15853e-06
1.02568e-06
1.03636e-06
1.21889e-06
1.45548e-06
1.87825e-06
2.30732e-06
2.51494e-06
2.48678e-06
2.2823e-06
2.18291e-06
2.06655e-06
1.91786e-06
1.92632e-06
2.36066e-06
2.71626e-06
2.85832e-06
2.8581e-06
2.69064e-06
2.64616e-06
2.72485e-06
2.94039e-06
3.33117e-06
3.69276e-06
3.9749e-06
3.98088e-06
3.55882e-06
2.96634e-06
2.58437e-06
2.18968e-06
2.00265e-06
1.89795e-06
1.9345e-06
2.09618e-06
2.2682e-06
2.68858e-06
3.16644e-06
3.18976e-06
3.06811e-06
2.86673e-06
2.87403e-06
3.17008e-06
3.64493e-06
3.64751e-06
3.31302e-06
3.13308e-06
3.27173e-06
3.75863e-06
4.39885e-06
4.73018e-06
4.83023e-06
4.81016e-06
4.79781e-06
4.90822e-06
4.63285e-06
4.33125e-06
4.44184e-06
5.02236e-06
6.15178e-06
7.52195e-06
7.72573e-06
6.56665e-06
5.24822e-06
5.66498e-06
7.35535e-06
9.72455e-06
1.21396e-05
1.11684e-05
8.69695e-06
7.29903e-06
6.99411e-06
6.96574e-06
8.20217e-06
1.10141e-05
1.55733e-05
1.76948e-05
1.40558e-05
1.03565e-05
9.97197e-06
1.01346e-05
1.07641e-05
1.20389e-05
1.48282e-05
1.97678e-05
2.36915e-05
2.25909e-05
1.93556e-05
1.82553e-05
1.98752e-05
2.21148e-05
2.41711e-05
2.60175e-05
2.80182e-05
3.17325e-05
3.86464e-05
5.14481e-05
7.50412e-05
0.000104685
0.000148169
0.000188099
0.000206152
0.000217865
0.000232214
0.000255067
0.000296531
0.000335105
0.000360602
0.000371307
0.000371643
0.00036146
0.000342067
0.000321285
0.000299542
0.000273522
0.00024684
0.000234361
0.000232968
0.000234074
0.000227956
0.000228829
0.000244679
0.000262989
0.000275767
0.000283109
0.000284763
0.000277173
0.000257171
0.000206426
0.000164268
0.000140909
0.000131746
0.000129534
0.000129975
0.000132467
0.000138385
0.000148684
0.000166093
0.000191235
0.000221894
0.00024479
0.000248684
0.000223669
0.000211499
0.000211656
0.000228834
0.000252315
0.000261411
0.000256469
0.000230068
0.000203835
0.000187357
0.000181442
0.00018468
0.000192055
0.000192213
0.000169358
0.000139697
0.000128673
0.000131301
0.00014108
0.000146367
0.000147078
0.000142467
0.000137626
0.000136038
0.0001409
0.000154782
0.00015818
0.00014607
0.000118252
0.000101042
0.000122868
0.000268647
0.000357056
0.000379509
0.000382118
0.000373304
0.000341829
0.000274836
0.000197365
0.000159189
0.000149017
0.000152289
0.000188029
0.000270267
0.000332852
0.000377065
0.000403749
0.000417558
0.000423585
0.000422773
0.000402503
0.000389906
0.000386564
0.000399477
0.000443926
0.000475905
0.000488667
0.000476983
0.000391943
0.000196447
0.000106894
7.43922e-05
6.55811e-05
6.55643e-05
7.696e-05
8.10701e-05
7.15188e-05
4.7842e-05
2.64036e-05
1.59377e-05
1.01393e-05
7.39664e-06
6.27574e-06
6.22415e-06
6.98415e-06
1.00794e-05
1.43692e-05
1.67274e-05
1.69185e-05
1.12297e-05
5.76478e-06
4.10733e-06
6.84902e-06
1.66522e-05
2.15049e-05
1.30889e-05
3.27133e-06
1.43738e-06
2.40606e-06
5.37645e-06
6.20326e-06
5.46481e-06
4.0892e-06
3.35656e-06
3.10997e-06
3.08818e-06
3.27636e-06
3.85396e-06
4.65021e-06
5.63995e-06
7.84363e-06
9.6372e-06
1.03929e-05
1.17352e-05
1.27973e-05
1.09772e-05
7.15309e-06
5.66365e-06
7.47196e-06
5.26751e-06
3.15973e-06
5.19629e-06
8.83535e-06
8.62052e-06
5.29692e-06
3.04894e-06
2.17822e-06
3.26352e-06
6.30111e-06
9.28517e-06
1.11176e-05
1.11449e-05
7.50842e-06
6.06584e-06
7.40045e-06
1.5461e-05
2.64585e-05
3.62625e-05
3.97925e-05
2.22407e-05
1.35931e-05
1.3139e-05
1.61649e-05
2.1526e-05
2.80997e-05
3.37169e-05
3.83734e-05
3.81799e-05
3.64437e-05
2.88033e-05
1.81768e-05
1.56121e-05
1.70925e-05
1.95469e-05
2.17669e-05
2.40213e-05
2.28096e-05
2.57208e-05
3.90295e-05
5.00672e-05
4.69033e-05
3.28903e-05
2.64033e-05
2.62122e-05
2.90854e-05
2.50661e-05
2.40302e-05
2.66872e-05
3.46498e-05
3.89526e-05
4.26167e-05
4.04928e-05
3.46637e-05
2.83404e-05
3.72134e-05
7.09081e-05
0.000125905
0.000193259
0.000231919
0.000219216
0.000166825
0.000116545
0.000115864
0.000161523
0.000222587
0.000274047
0.000310317
0.000327607
0.000325217
0.000306173
0.000297821
0.000328278
0.000384327
0.000480221
0.000547067
0.000529716
0.000462609
0.000416952
0.000395319
0.00038518
0.000382157
0.000385057
0.000395028
0.000402163
0.000406812
0.0004098
0.000414486
0.000423897
0.000439619
0.000452855
0.000450323
0.000428317
0.000398699
0.000373389
0.000355922
0.000348536
0.000348787
0.000353107
0.000352409
0.000319045
0.000199836
0.000119646
8.50478e-05
7.6963e-05
8.71607e-05
0.000125544
0.000161727
0.000175171
0.000165226
0.000127526
0.000109707
0.000110886
0.000146244
0.000194723
0.000209333
0.000168966
0.000112384
8.95846e-05
8.21874e-05
8.02129e-05
8.17442e-05
9.70693e-05
0.000133201
0.000166638
0.000181042
0.00016282
0.000114233
9.19248e-05
8.65645e-05
8.65742e-05
8.93828e-05
0.000100656
0.000118606
0.00012871
0.000131326
0.000127294
0.000125712
0.000129212
0.000131118
0.000132416
0.00013506
0.000134662
0.000112366
7.73863e-05
6.23191e-05
6.13978e-05
7.82725e-05
9.94969e-05
0.000113602
0.000126164
0.000140289
0.000149183
0.00016021
0.000184665
0.000229578
0.000279282
0.000304788
0.000319267
0.000329696
0.000339839
0.000349811
0.000358424
0.000361869
0.00035382
0.000336684
0.000326339
0.0003246
0.000333258
0.000369189
0.000394069
0.000401948
0.000395826
0.000373328
0.000356081
0.000342154
0.000331983
0.000327545
0.000334499
0.000393617
0.000475343
0.000505216
0.000489537
0.000429361
0.000388955
0.000362189
0.000348628
0.000345503
0.000360501
0.000370485
0.000364011
0.000341488
0.000332329
0.000337723
0.000377424
0.000412255
0.00041329
0.000401664
0.000369505
0.000350087
0.000347642
0.000382987
0.000431827
0.000452552
0.000455161
0.000432473
0.000403865
0.000394877
0.000401983
0.000438053
0.000467636
0.00046809
0.000455578
0.00043984
0.000413561
0.000392991
0.0003872
0.000397523
0.000413033
0.00041146
0.000390576
0.000382839
0.000380401
0.000379684
0.000384861
0.000384598
0.000379622
0.000378541
0.000381305
0.000383817
0.000382416
0.000382422
0.000390521
0.000404642
0.000411081
0.00040674
0.000391377
0.000376956
0.000371171
0.000371255
0.000371707
0.000359396
0.000341483
0.000327716
0.000303438
0.000264875
0.000240435
0.000251164
0.000293045
0.000294966
0.000248143
0.000203296
0.000185307
0.000232164
0.000323624
0.000320002
0.000191735
0.000128935
0.000116204
0.000119541
0.00013015
0.000146517
0.000204416
0.000289643
0.000322395
0.000268515
0.0001453
0.000106234
0.000115251
0.000177646
0.000291488
0.000362003
0.000397198
0.000424375
0.000451293
0.0004718
0.000493729
0.000516074
0.000532695
0.000545712
0.000552894
0.000545455
0.000489377
0.000421153
0.000386418
0.000378876
0.000392718
0.000417099
0.000463101
0.000509188
0.000531052
0.000536507
0.000529525
0.000516782
0.000507812
0.000494764
0.000477842
0.000468361
0.000463989
0.00046031
0.000454322
0.000443033
0.000431179
0.000409212
0.00031736
0.000130891
5.34748e-05
2.45564e-05
1.40877e-05
9.14114e-06
6.39658e-06
4.7762e-06
3.59829e-06
2.77808e-06
2.48675e-06
2.84356e-06
3.00425e-06
2.59713e-06
2.50187e-06
2.56012e-06
3.1962e-06
3.2687e-06
2.57428e-06
2.31629e-06
1.90461e-06
1.65409e-06
2.21219e-06
5.99516e-06
7.17082e-06
6.3073e-06
5.51793e-06
4.51641e-06
3.1616e-06
3.317e-06
5.20924e-06
6.10746e-06
6.02779e-06
6.4878e-06
4.34482e-06
2.92931e-06
4.14368e-06
7.6716e-06
9.13549e-06
1.23236e-05
1.4682e-05
1.26836e-05
9.7115e-06
8.70394e-06
7.05024e-06
5.66101e-06
7.97079e-06
9.77875e-06
1.11932e-05
2.92559e-05
5.6693e-05
5.34021e-05
8.15862e-05
0.000388494
5.31892e-05
1.46756e-05
3.77668e-05
0.000121635
0.000182831
0.000202943
6.96172e-05
6.25857e-05
0.000149428
0.00151016
0.000912363
0.000943949
0.00171645
0.00174303
0.000205898