/*--------------------------------*- C++ -*----------------------------------*\
| =========                 |                                                 |
| \\      /  F ield         | foam-extend: Open Source CFD                    |
|  \\    /   O peration     | Version:     3.1                                |
|   \\  /    A nd           | Web:         http://www.extend-project.de       |
|    \\/     M anipulation  |                                                 |
\*---------------------------------------------------------------------------*/
FoamFile
{
    version     2.0;
    format      ascii;
    class       volScalarField;
    location    "120";
    object      nut;
}
// * * * * * * * * * * * * * * * * * * * * * * * * * * * * * * * * * * * * * //

dimensions      [0 2 -1 0 0 0 0];

internalField   nonuniform List<scalar> 
212248
(
4.70554e-09
3.81363e-09
3.42959e-09
3.30951e-09
3.35134e-09
3.5411e-09
3.87361e-09
4.37743e-09
5.0836e-09
6.02962e-09
7.27274e-09
8.89187e-09
1.09883e-08
1.36901e-08
1.71504e-08
2.15466e-08
2.70888e-08
3.40147e-08
4.2588e-08
5.30943e-08
6.58345e-08
8.11152e-08
9.92335e-08
1.20458e-07
1.45025e-07
1.73123e-07
2.04883e-07
2.40339e-07
2.79432e-07
3.21991e-07
3.67728e-07
4.16242e-07
4.67019e-07
5.19427e-07
5.72739e-07
6.26149e-07
6.78751e-07
7.29606e-07
7.77734e-07
8.22126e-07
8.61794e-07
8.9583e-07
9.27083e-07
9.57935e-07
9.88388e-07
1.01842e-06
1.048e-06
1.07711e-06
1.10574e-06
1.13386e-06
1.16146e-06
1.18852e-06
1.21502e-06
1.24095e-06
1.2663e-06
1.29105e-06
1.31519e-06
1.33871e-06
1.36159e-06
1.38384e-06
1.40542e-06
1.42635e-06
1.4466e-06
1.46616e-06
1.48504e-06
1.50321e-06
1.52068e-06
1.53743e-06
1.55345e-06
1.56874e-06
1.58329e-06
1.5971e-06
1.61015e-06
1.62243e-06
1.63394e-06
1.64468e-06
1.65463e-06
1.66379e-06
1.67214e-06
1.67968e-06
1.6864e-06
1.69227e-06
1.69728e-06
1.70141e-06
1.70462e-06
1.70687e-06
1.70811e-06
1.70829e-06
1.70733e-06
1.70501e-06
1.7012e-06
1.69565e-06
1.68807e-06
1.67805e-06
1.66499e-06
1.6481e-06
1.62629e-06
1.59814e-06
1.56175e-06
1.51469e-06
1.45384e-06
1.37533e-06
1.2745e-06
1.14597e-06
9.84472e-07
7.88571e-07
6.08738e-07
4.66706e-07
3.56252e-07
2.71396e-07
2.06752e-07
1.57765e-07
1.20745e-07
9.27894e-08
7.16592e-08
5.56542e-08
4.34935e-08
3.42179e-08
2.71107e-08
2.16382e-08
1.74027e-08
1.41068e-08
1.15272e-08
9.49627e-09
7.88784e-09
6.60658e-09
5.57996e-09
4.7526e-09
4.08158e-09
3.53388e-09
3.08528e-09
2.71606e-09
2.41074e-09
2.15712e-09
1.94563e-09
1.76879e-09
1.6203e-09
1.49512e-09
1.38945e-09
1.30027e-09
1.22513e-09
1.16208e-09
1.10953e-09
1.06626e-09
1.03129e-09
1.00388e-09
9.83486e-10
9.69753e-10
9.62543e-10
9.61755e-10
9.67472e-10
9.80266e-10
1.00067e-09
1.02958e-09
1.06826e-09
1.11849e-09
1.18276e-09
1.26437e-09
1.36779e-09
1.49914e-09
1.66664e-09
1.88118e-09
2.15709e-09
2.51312e-09
2.97348e-09
3.56911e-09
4.33909e-09
5.33221e-09
6.60811e-09
8.2385e-09
1.03073e-08
1.29138e-08
1.61723e-08
2.02086e-08
2.51546e-08
3.11573e-08
3.83714e-08
4.69552e-08
5.70674e-08
6.88623e-08
8.24844e-08
9.80666e-08
1.15719e-07
1.35525e-07
1.57537e-07
1.81769e-07
2.08196e-07
2.36758e-07
2.67361e-07
2.99861e-07
3.3407e-07
3.69768e-07
4.06712e-07
4.44627e-07
4.832e-07
5.221e-07
5.60992e-07
5.99524e-07
6.37329e-07
6.74055e-07
7.09374e-07
7.4296e-07
7.7449e-07
8.03656e-07
8.30136e-07
8.53634e-07
8.7392e-07
8.91695e-07
9.0903e-07
9.25985e-07
9.42562e-07
9.58765e-07
9.74595e-07
9.90056e-07
1.00515e-06
1.01988e-06
1.03425e-06
1.04827e-06
1.06194e-06
1.07525e-06
1.08823e-06
1.10086e-06
1.11316e-06
1.12513e-06
1.13676e-06
1.14808e-06
1.15908e-06
1.16976e-06
1.18013e-06
1.19019e-06
1.19995e-06
1.20941e-06
1.21857e-06
1.22744e-06
1.23602e-06
1.24432e-06
1.25234e-06
1.26007e-06
1.26753e-06
1.27472e-06
1.28164e-06
1.28829e-06
1.29468e-06
1.30081e-06
1.30668e-06
1.31229e-06
1.31765e-06
1.32275e-06
1.32761e-06
1.33221e-06
1.33657e-06
1.34068e-06
1.34456e-06
1.34818e-06
1.35157e-06
1.35471e-06
1.35762e-06
1.36028e-06
1.36271e-06
1.3649e-06
1.36684e-06
1.36855e-06
1.37001e-06
1.37122e-06
1.37218e-06
1.37288e-06
1.37332e-06
1.37351e-06
1.37341e-06
1.37302e-06
1.37233e-06
1.37132e-06
1.37e-06
1.36829e-06
1.36619e-06
1.36367e-06
1.36069e-06
1.35719e-06
1.35308e-06
1.34827e-06
1.34263e-06
1.33602e-06
1.32826e-06
1.31912e-06
1.30833e-06
1.29552e-06
1.28026e-06
1.26204e-06
1.24022e-06
1.21399e-06
1.18243e-06
1.14436e-06
1.09833e-06
1.04257e-06
9.74943e-07
8.93161e-07
7.95348e-07
6.89212e-07
5.94051e-07
5.0987e-07
4.36019e-07
3.71916e-07
3.16922e-07
2.70127e-07
2.30339e-07
1.96359e-07
1.67282e-07
1.4249e-07
1.2141e-07
1.03512e-07
8.855e-08
7.58681e-08
6.51505e-08
5.60798e-08
4.84e-08
4.18929e-08
3.63742e-08
3.16883e-08
2.77036e-08
2.43094e-08
2.14129e-08
1.89364e-08
1.68149e-08
1.49941e-08
1.34287e-08
1.20808e-08
1.09189e-08
9.91627e-09
9.0502e-09
8.30161e-09
7.65444e-09
7.09519e-09
6.61264e-09
6.19742e-09
5.84185e-09
5.53936e-09
5.2842e-09
5.07156e-09
4.89768e-09
4.7597e-09
4.65538e-09
4.58287e-09
4.54085e-09
4.5258e-09
4.54126e-09
4.58532e-09
4.65736e-09
4.75734e-09
4.88508e-09
5.04045e-09
5.22324e-09
5.43271e-09
5.66799e-09
5.92747e-09
6.20889e-09
6.50949e-09
6.82552e-09
7.15268e-09
7.48703e-09
7.82311e-09
8.15594e-09
8.48085e-09
8.79493e-09
9.09354e-09
9.37137e-09
9.62575e-09
9.85397e-09
1.00553e-08
1.0232e-08
1.03874e-08
1.05229e-08
1.0641e-08
1.07455e-08
1.08412e-08
1.0933e-08
1.1023e-08
1.11191e-08
1.12229e-08
1.13408e-08
1.1477e-08
1.16326e-08
1.18216e-08
1.20519e-08
1.23136e-08
1.2611e-08
1.29556e-08
1.33422e-08
1.37907e-08
1.43032e-08
1.48743e-08
1.55225e-08
1.62513e-08
1.70574e-08
1.79488e-08
1.89439e-08
2.00572e-08
2.13081e-08
2.27091e-08
2.42817e-08
2.60491e-08
2.80469e-08
3.03075e-08
3.28603e-08
3.57566e-08
3.90509e-08
4.27992e-08
4.70673e-08
5.19332e-08
5.74958e-08
6.41295e-08
7.43022e-08
8.63563e-08
9.8967e-08
1.12112e-07
1.2684e-07
1.43319e-07
1.61579e-07
1.81594e-07
2.03274e-07
2.26465e-07
2.50939e-07
2.76387e-07
3.02427e-07
3.28623e-07
3.54462e-07
3.79406e-07
4.03017e-07
4.26282e-07
4.49542e-07
4.72756e-07
4.95885e-07
5.18883e-07
5.41698e-07
5.64296e-07
5.86654e-07
6.08738e-07
6.30488e-07
6.51887e-07
6.72943e-07
6.93646e-07
7.13962e-07
7.33827e-07
7.53227e-07
7.72218e-07
7.90786e-07
8.08857e-07
8.2646e-07
8.43577e-07
8.60201e-07
8.7633e-07
8.91908e-07
9.07008e-07
9.21645e-07
9.35822e-07
9.49523e-07
9.62709e-07
9.75357e-07
9.87544e-07
9.99288e-07
1.01049e-06
1.02103e-06
1.03114e-06
1.04034e-06
1.04904e-06
1.05578e-06
1.06295e-06
1.06667e-06
1.07101e-06
1.06714e-06
1.04329e-06
1.05922e-06
1.096e-06
1.11794e-06
1.12102e-06
1.12272e-06
1.12678e-06
1.13423e-06
1.14418e-06
1.15212e-06
1.15639e-06
1.15824e-06
1.15861e-06
1.15822e-06
1.15758e-06
1.15687e-06
1.15573e-06
1.15382e-06
1.15094e-06
1.14704e-06
1.14204e-06
1.13583e-06
1.12822e-06
1.11898e-06
1.1078e-06
1.09429e-06
1.07795e-06
1.05811e-06
1.03397e-06
1.00454e-06
9.68578e-07
9.24649e-07
8.711e-07
8.06091e-07
7.27686e-07
6.34276e-07
5.30837e-07
4.41633e-07
3.67451e-07
3.06029e-07
2.55444e-07
2.1391e-07
1.79746e-07
1.51613e-07
1.28486e-07
1.09468e-07
9.37445e-08
8.06807e-08
6.98258e-08
6.08057e-08
5.32553e-08
4.68911e-08
4.15293e-08
3.70147e-08
3.31863e-08
2.9913e-08
2.71172e-08
2.47337e-08
2.26892e-08
2.09205e-08
1.93917e-08
1.80744e-08
1.69336e-08
1.59374e-08
1.5071e-08
1.43237e-08
1.3677e-08
1.31136e-08
1.26249e-08
1.22073e-08
1.18551e-08
1.15542e-08
1.12989e-08
1.10909e-08
1.09294e-08
1.08027e-08
1.07054e-08
1.06425e-08
1.06151e-08
1.06152e-08
1.06367e-08
1.06836e-08
1.07593e-08
1.08613e-08
1.09829e-08
1.11245e-08
1.12909e-08
1.14824e-08
1.16934e-08
1.19232e-08
1.21751e-08
1.24518e-08
1.27498e-08
1.30675e-08
1.3408e-08
1.37738e-08
1.41637e-08
1.45778e-08
1.50171e-08
1.54829e-08
1.59772e-08
1.65008e-08
1.70538e-08
1.76373e-08
1.82542e-08
1.89074e-08
1.9598e-08
2.03262e-08
2.10943e-08
2.19064e-08
2.27655e-08
2.36705e-08
2.46195e-08
2.56185e-08
2.66804e-08
2.78447e-08
3.00226e-08
3.26868e-08
3.48667e-08
3.70448e-08
3.94582e-08
4.21134e-08
4.50554e-08
4.83526e-08
5.20371e-08
5.61069e-08
6.06001e-08
6.56178e-08
7.12431e-08
7.74711e-08
8.42915e-08
9.18066e-08
1.00168e-07
1.09389e-07
1.19381e-07
1.30197e-07
1.41986e-07
1.54841e-07
1.68596e-07
1.83111e-07
1.98454e-07
2.14765e-07
2.31877e-07
2.49438e-07
2.67369e-07
2.85702e-07
3.0436e-07
3.22923e-07
3.41017e-07
3.58707e-07
3.75813e-07
3.92129e-07
4.07323e-07
4.21125e-07
4.33501e-07
4.44446e-07
4.53911e-07
4.62856e-07
4.71543e-07
4.80076e-07
4.88519e-07
4.96823e-07
5.04934e-07
5.12875e-07
5.20715e-07
5.28461e-07
5.36062e-07
5.43505e-07
5.50829e-07
5.58052e-07
5.65151e-07
5.72108e-07
5.78931e-07
5.85637e-07
5.9222e-07
5.98651e-07
6.04911e-07
6.11002e-07
6.16932e-07
6.22701e-07
6.28308e-07
6.3376e-07
6.39042e-07
6.44124e-07
6.48992e-07
6.53645e-07
6.58078e-07
6.62295e-07
6.66294e-07
6.70062e-07
6.73594e-07
6.76888e-07
6.79927e-07
6.82675e-07
6.85113e-07
6.87241e-07
6.89041e-07
6.9046e-07
6.91456e-07
6.92017e-07
6.92123e-07
6.91675e-07
6.90594e-07
6.88834e-07
6.86336e-07
6.82963e-07
6.78541e-07
6.72926e-07
6.65958e-07
6.57367e-07
6.46814e-07
6.34017e-07
6.18662e-07
6.0022e-07
5.77961e-07
5.5118e-07
5.19727e-07
4.88061e-07
4.57221e-07
4.27277e-07
3.98462e-07
3.70916e-07
3.446e-07
3.19472e-07
2.95627e-07
2.73176e-07
2.5211e-07
2.32343e-07
2.13843e-07
1.96629e-07
1.80699e-07
1.65982e-07
1.52376e-07
1.39817e-07
1.28273e-07
1.17707e-07
1.08046e-07
9.92136e-08
9.11469e-08
8.37981e-08
7.71173e-08
7.10477e-08
6.55343e-08
6.05285e-08
5.59843e-08
5.1865e-08
4.81361e-08
4.47611e-08
4.17055e-08
3.89381e-08
3.64336e-08
3.41697e-08
3.2125e-08
3.02765e-08
2.86042e-08
2.70932e-08
2.57326e-08
2.45075e-08
2.34031e-08
2.24082e-08
2.15142e-08
2.07169e-08
2.00087e-08
1.93795e-08
1.88218e-08
1.83307e-08
1.79032e-08
1.75351e-08
1.7221e-08
1.69557e-08
1.67377e-08
1.65679e-08
1.64449e-08
1.63653e-08
1.6324e-08
1.63202e-08
1.63564e-08
1.64369e-08
1.65529e-08
1.67062e-08
1.68948e-08
1.71234e-08
1.7393e-08
1.77029e-08
1.80532e-08
1.84403e-08
1.88751e-08
1.9354e-08
1.98766e-08
2.04527e-08
2.10902e-08
2.17884e-08
2.25537e-08
2.33831e-08
2.42845e-08
2.52656e-08
2.63294e-08
2.74938e-08
2.87632e-08
3.01417e-08
3.16458e-08
3.32992e-08
3.51093e-08
3.71035e-08
3.9297e-08
4.171e-08
4.43839e-08
4.73461e-08
5.06245e-08
5.42801e-08
5.8323e-08
6.28353e-08
6.78533e-08
7.34303e-08
7.96214e-08
8.64779e-08
9.40651e-08
1.0244e-07
1.11875e-07
1.25237e-07
1.42266e-07
1.61016e-07
1.81069e-07
2.02302e-07
2.24648e-07
2.48064e-07
2.72507e-07
2.9792e-07
3.24229e-07
3.51353e-07
3.79223e-07
4.07782e-07
4.36979e-07
4.66757e-07
4.97059e-07
5.27837e-07
5.59046e-07
5.90625e-07
6.22518e-07
6.54655e-07
6.86973e-07
7.19427e-07
7.5198e-07
7.84585e-07
8.17201e-07
8.49802e-07
8.82366e-07
9.14854e-07
9.47219e-07
9.79422e-07
1.01143e-06
1.04322e-06
1.07475e-06
1.10598e-06
1.13689e-06
1.16744e-06
1.19758e-06
1.22729e-06
1.25655e-06
1.28531e-06
1.31358e-06
1.34132e-06
1.36851e-06
1.39513e-06
1.42116e-06
1.4466e-06
1.47139e-06
1.4955e-06
1.51889e-06
1.54155e-06
1.56345e-06
1.58455e-06
1.60484e-06
1.62429e-06
1.6429e-06
1.66062e-06
1.67743e-06
1.69332e-06
1.70827e-06
1.7223e-06
1.73541e-06
1.7476e-06
1.75893e-06
1.76941e-06
1.77891e-06
1.78734e-06
1.79483e-06
1.80142e-06
1.80699e-06
1.81153e-06
1.81517e-06
1.81786e-06
1.81953e-06
1.82017e-06
1.81983e-06
1.81834e-06
1.81553e-06
1.81135e-06
1.80575e-06
1.79874e-06
1.79031e-06
1.78042e-06
1.769e-06
1.75598e-06
1.74126e-06
1.72469e-06
1.70612e-06
1.68532e-06
1.662e-06
1.63574e-06
1.60603e-06
1.57221e-06
1.53341e-06
1.48833e-06
1.43523e-06
1.37178e-06
1.29506e-06
1.20141e-06
1.0864e-06
9.45035e-07
7.73043e-07
5.81511e-07
4.30494e-07
3.19616e-07
2.38841e-07
1.80071e-07
1.37288e-07
1.05985e-07
8.28807e-08
6.57528e-08
5.29547e-08
4.3309e-08
3.59867e-08
3.03627e-08
2.6008e-08
2.26091e-08
1.99345e-08
1.78269e-08
1.61582e-08
1.48389e-08
1.37971e-08
1.29819e-08
1.2348e-08
1.18697e-08
1.1532e-08
1.13172e-08
1.12071e-08
1.1193e-08
1.12551e-08
1.13865e-08
1.15872e-08
1.18694e-08
1.22194e-08
1.26313e-08
1.31201e-08
1.36855e-08
1.43231e-08
1.50361e-08
1.58431e-08
1.6744e-08
1.77302e-08
1.88149e-08
2.00229e-08
2.13502e-08
2.27916e-08
2.43663e-08
2.61118e-08
2.9048e-08
3.27119e-08
3.57839e-08
3.90205e-08
4.25802e-08
4.6476e-08
5.0705e-08
5.52718e-08
6.01849e-08
6.54237e-08
7.09664e-08
7.68081e-08
8.29067e-08
8.92242e-08
9.57286e-08
1.0234e-07
1.08999e-07
1.15649e-07
1.22209e-07
1.28619e-07
1.34789e-07
1.40651e-07
1.46174e-07
1.51312e-07
1.56047e-07
1.60396e-07
1.6437e-07
1.67978e-07
1.71237e-07
1.74172e-07
1.76861e-07
1.79361e-07
1.81686e-07
1.83849e-07
1.85909e-07
1.8797e-07
1.90089e-07
1.92253e-07
1.945e-07
1.96873e-07
1.99335e-07
2.01869e-07
2.04571e-07
2.07679e-07
2.11249e-07
2.14897e-07
2.18684e-07
2.22688e-07
2.26907e-07
2.31196e-07
2.35451e-07
2.39729e-07
2.43908e-07
2.47926e-07
2.51862e-07
2.55648e-07
2.59163e-07
2.62431e-07
2.65506e-07
2.68473e-07
2.71211e-07
2.73502e-07
2.75224e-07
2.76274e-07
2.76532e-07
2.76035e-07
2.74902e-07
2.73252e-07
2.71054e-07
2.68486e-07
2.65535e-07
2.62202e-07
2.5869e-07
2.55062e-07
2.51377e-07
2.47654e-07
2.43777e-07
2.39699e-07
2.3543e-07
2.30905e-07
2.2619e-07
2.21285e-07
2.16216e-07
2.11079e-07
2.05996e-07
2.0097e-07
1.95898e-07
1.90857e-07
1.85934e-07
1.81147e-07
1.76508e-07
1.71938e-07
1.67404e-07
1.62764e-07
1.58115e-07
1.53412e-07
1.48831e-07
1.44501e-07
1.40438e-07
1.36642e-07
1.33131e-07
1.29867e-07
1.26792e-07
1.2386e-07
1.21013e-07
1.18204e-07
1.15389e-07
1.12474e-07
1.09356e-07
1.06159e-07
1.03086e-07
1.00247e-07
9.77377e-08
9.55743e-08
9.37368e-08
9.21751e-08
9.07939e-08
8.95164e-08
8.83573e-08
8.73565e-08
8.65006e-08
8.57736e-08
8.5154e-08
8.46514e-08
8.42784e-08
8.40413e-08
8.39505e-08
8.40018e-08
8.41936e-08
8.45275e-08
8.50023e-08
8.56066e-08
8.63132e-08
8.71064e-08
8.79834e-08
8.89505e-08
9.00061e-08
9.11475e-08
9.23682e-08
9.36587e-08
9.50079e-08
9.64141e-08
9.78655e-08
9.93538e-08
1.00861e-07
1.02384e-07
1.03919e-07
1.05478e-07
1.07038e-07
1.08596e-07
1.10145e-07
1.11678e-07
1.13183e-07
1.14647e-07
1.16054e-07
1.1738e-07
1.18608e-07
1.19729e-07
1.20729e-07
1.21584e-07
1.22278e-07
1.228e-07
1.23144e-07
1.2331e-07
1.23281e-07
1.23036e-07
1.22568e-07
1.21885e-07
1.20995e-07
1.19904e-07
1.18606e-07
1.1711e-07
1.15454e-07
1.13645e-07
1.11698e-07
1.09593e-07
1.07339e-07
1.04965e-07
1.02517e-07
9.99803e-08
9.73545e-08
9.46612e-08
9.19282e-08
8.9163e-08
8.63581e-08
8.35206e-08
8.06886e-08
7.78928e-08
7.51465e-08
7.24584e-08
6.98429e-08
6.73086e-08
6.48564e-08
6.24864e-08
6.02032e-08
5.8022e-08
5.59533e-08
5.40035e-08
5.21783e-08
5.04836e-08
4.89243e-08
4.75039e-08
4.62235e-08
4.50819e-08
4.40825e-08
4.32323e-08
4.25312e-08
4.19865e-08
4.15957e-08
4.13656e-08
4.13164e-08
4.14439e-08
4.17772e-08
4.23158e-08
4.30906e-08
4.41303e-08
4.54478e-08
4.70919e-08
4.90971e-08
5.15468e-08
5.4489e-08
5.80383e-08
6.22861e-08
6.73929e-08
7.3517e-08
8.08244e-08
8.95504e-08
9.98559e-08
1.1196e-07
1.26026e-07
1.42161e-07
1.60425e-07
1.83528e-07
2.17105e-07
2.55246e-07
2.96303e-07
3.39893e-07
3.85748e-07
4.33609e-07
4.83197e-07
5.3427e-07
5.86603e-07
6.39971e-07
6.94165e-07
7.48994e-07
8.04292e-07
8.59895e-07
9.15636e-07
9.71377e-07
1.027e-06
1.08241e-06
1.1375e-06
1.19215e-06
1.24629e-06
1.29983e-06
1.35267e-06
1.40474e-06
1.45596e-06
1.50625e-06
1.55554e-06
1.60376e-06
1.65087e-06
1.69679e-06
1.74154e-06
1.78501e-06
1.82712e-06
1.86786e-06
1.90728e-06
1.94535e-06
1.98204e-06
2.01745e-06
2.05165e-06
2.0847e-06
2.11676e-06
2.14808e-06
2.17894e-06
2.20976e-06
2.24126e-06
2.27487e-06
2.31288e-06
2.35233e-06
2.38923e-06
2.42368e-06
2.45569e-06
2.4852e-06
2.51224e-06
2.53679e-06
2.55858e-06
2.57701e-06
2.59165e-06
2.60235e-06
2.6092e-06
2.61228e-06
2.61187e-06
2.60759e-06
2.59897e-06
2.5858e-06
2.56819e-06
2.54579e-06
2.51921e-06
2.48838e-06
2.45323e-06
2.41368e-06
2.3698e-06
2.32172e-06
2.26966e-06
2.21387e-06
2.15465e-06
2.09247e-06
2.0281e-06
1.96235e-06
1.88962e-06
1.80255e-06
1.69743e-06
1.57045e-06
1.41734e-06
1.23372e-06
1.01639e-06
7.67642e-07
5.38662e-07
3.82354e-07
2.77356e-07
2.05876e-07
1.56352e-07
1.2154e-07
9.66862e-08
7.85816e-08
6.52933e-08
5.54218e-08
4.78812e-08
4.20297e-08
3.75164e-08
3.39889e-08
3.11764e-08
2.89247e-08
2.71377e-08
2.57319e-08
2.46182e-08
2.37379e-08
2.3079e-08
2.25926e-08
2.22481e-08
2.20294e-08
2.19003e-08
2.18412e-08
2.18399e-08
2.19231e-08
2.20895e-08
2.2289e-08
2.24875e-08
2.27041e-08
2.29123e-08
2.31326e-08
2.33493e-08
2.35629e-08
2.37564e-08
2.39219e-08
2.4054e-08
2.41481e-08
2.41584e-08
2.40332e-08
2.3713e-08
2.54133e-08
2.61419e-08
2.62728e-08
2.63944e-08
2.65098e-08
2.66285e-08
2.67771e-08
2.69673e-08
2.71914e-08
2.74495e-08
2.77619e-08
2.81519e-08
2.86286e-08
2.9178e-08
2.98013e-08
3.05065e-08
3.13129e-08
3.21982e-08
3.31255e-08
3.41517e-08
3.53121e-08
3.66094e-08
3.81228e-08
3.99613e-08
4.2197e-08
4.48891e-08
4.80989e-08
5.18922e-08
5.63306e-08
6.14661e-08
6.73658e-08
7.41432e-08
8.19704e-08
9.1011e-08
1.01335e-07
1.13027e-07
1.2623e-07
1.41125e-07
1.57912e-07
1.7676e-07
1.98028e-07
2.22391e-07
2.50865e-07
2.84507e-07
3.24238e-07
3.70834e-07
4.25057e-07
4.8308e-07
5.30729e-07
5.67602e-07
5.95624e-07
6.17091e-07
6.33792e-07
6.46703e-07
6.56431e-07
6.63753e-07
6.69397e-07
6.73615e-07
6.7615e-07
6.76768e-07
6.75689e-07
6.73192e-07
6.69788e-07
6.65845e-07
6.61516e-07
6.56736e-07
6.50752e-07
6.43415e-07
6.35627e-07
6.28287e-07
6.21652e-07
6.16285e-07
6.12692e-07
6.10911e-07
6.10566e-07
6.11103e-07
6.12022e-07
6.13028e-07
6.14374e-07
6.16754e-07
6.19994e-07
6.22641e-07
6.23522e-07
6.21844e-07
6.16132e-07
6.05751e-07
5.9144e-07
5.73809e-07
5.53096e-07
5.33696e-07
5.19047e-07
5.09311e-07
5.02495e-07
4.96924e-07
4.91927e-07
4.8694e-07
4.80865e-07
4.74877e-07
4.69985e-07
4.67105e-07
4.66807e-07
4.6918e-07
4.74069e-07
4.81132e-07
4.90892e-07
5.0359e-07
5.18627e-07
5.34185e-07
5.48884e-07
5.62254e-07
5.7473e-07
5.87128e-07
5.99692e-07
6.1167e-07
6.22972e-07
6.33654e-07
6.43127e-07
6.49595e-07
6.51364e-07
6.42576e-07
6.14015e-07
5.57094e-07
4.83438e-07
4.17954e-07
3.742e-07
3.52882e-07
3.49269e-07
3.58897e-07
3.84475e-07
4.28423e-07
4.97531e-07
5.89243e-07
6.68551e-07
7.13554e-07
7.30081e-07
7.30574e-07
7.02445e-07
6.136e-07
4.62088e-07
3.43508e-07
2.63924e-07
2.11914e-07
1.77068e-07
1.53181e-07
1.37399e-07
1.28402e-07
1.24398e-07
1.21665e-07
1.16864e-07
1.04453e-07
8.1553e-08
5.99071e-08
5.07634e-08
5.14824e-08
6.10573e-08
8.07811e-08
1.18094e-07
1.89899e-07
3.17435e-07
4.73973e-07
5.79213e-07
6.27869e-07
6.48327e-07
6.54504e-07
6.54115e-07
6.46374e-07
6.32131e-07
5.93318e-07
5.33396e-07
4.46918e-07
3.62268e-07
2.77949e-07
2.07058e-07
1.52067e-07
1.09325e-07
7.39726e-08
4.33155e-08
1.88679e-08
7.10043e-09
3.92608e-09
3.97084e-09
8.29791e-09
2.71448e-08
9.4155e-08
3.0709e-07
5.92405e-07
6.80344e-07
6.97018e-07
6.9257e-07
6.69582e-07
6.37958e-07
5.99244e-07
5.62809e-07
5.36643e-07
5.27927e-07
5.4772e-07
5.99953e-07
6.89296e-07
8.10199e-07
9.21817e-07
1.01418e-06
1.08985e-06
1.14927e-06
1.19321e-06
1.22224e-06
1.23709e-06
1.24149e-06
1.23435e-06
1.20599e-06
1.16326e-06
1.10334e-06
1.01565e-06
8.86631e-07
6.88577e-07
4.59287e-07
3.0303e-07
2.05557e-07
1.43675e-07
1.00869e-07
6.85161e-08
4.41642e-08
2.7338e-08
1.71981e-08
1.18899e-08
8.99097e-09
7.40619e-09
6.23118e-09
5.5256e-09
5.01319e-09
4.44183e-09
4.10151e-09
3.90877e-09
3.84734e-09
3.90995e-09
4.08236e-09
4.34488e-09
4.64859e-09
5.12946e-09
5.743e-09
6.2884e-09
6.68873e-09
6.95012e-09
6.95864e-09
7.23457e-09
7.65664e-09
9.06627e-09
1.18406e-08
1.6839e-08
2.08485e-08
2.2644e-08
2.31947e-08
2.25126e-08
2.12556e-08
2.06277e-08
2.16689e-08
2.40823e-08
2.74747e-08
3.15411e-08
3.60579e-08
4.16427e-08
4.93475e-08
6.04778e-08
7.58252e-08
9.44235e-08
1.16043e-07
1.3799e-07
1.50732e-07
1.51042e-07
1.39576e-07
1.23323e-07
1.11865e-07
1.02284e-07
9.48624e-08
9.28449e-08
9.66115e-08
1.02713e-07
1.06865e-07
1.0683e-07
1.02325e-07
9.31592e-08
7.81711e-08
5.56114e-08
3.39842e-08
2.02911e-08
1.29321e-08
9.26925e-09
8.53374e-09
1.09553e-08
1.62907e-08
2.1484e-08
2.51404e-08
2.72452e-08
2.83853e-08
2.89879e-08
2.8438e-08
2.65949e-08
2.3761e-08
2.12979e-08
2.0102e-08
1.99935e-08
2.05555e-08
2.21481e-08
2.45694e-08
2.74392e-08
2.9874e-08
3.10922e-08
3.21485e-08
3.34101e-08
3.5201e-08
3.63435e-08
3.57848e-08
3.23959e-08
2.81251e-08
2.74897e-08
2.82182e-08
2.87866e-08
3.04259e-08
3.04783e-08
3.0376e-08
3.14192e-08
3.31747e-08
3.6137e-08
3.91365e-08
4.08925e-08
4.20166e-08
4.24194e-08
4.2821e-08
4.2584e-08
4.19537e-08
4.07394e-08
4.01647e-08
4.1302e-08
4.46406e-08
5.12091e-08
6.15345e-08
7.52739e-08
9.13709e-08
1.02935e-07
1.09387e-07
1.14852e-07
1.20137e-07
1.32337e-07
1.41022e-07
1.53356e-07
1.96546e-07
2.65456e-07
3.26974e-07
3.83097e-07
4.27866e-07
4.51972e-07
4.61394e-07
4.47234e-07
4.3616e-07
4.33406e-07
4.35748e-07
4.39794e-07
4.43892e-07
4.50139e-07
4.60036e-07
4.76023e-07
4.99536e-07
5.36505e-07
5.95606e-07
6.69538e-07
7.38777e-07
8.08233e-07
9.16349e-07
1.05266e-06
1.1473e-06
1.214e-06
1.27991e-06
1.35851e-06
1.41489e-06
1.43941e-06
1.44223e-06
1.42837e-06
1.38867e-06
1.34974e-06
1.31734e-06
1.29009e-06
1.26649e-06
1.24398e-06
1.21925e-06
1.18816e-06
1.15935e-06
1.13465e-06
1.11273e-06
1.09253e-06
1.07334e-06
1.05493e-06
1.03886e-06
1.02708e-06
1.01909e-06
1.01348e-06
1.01191e-06
1.01573e-06
1.02627e-06
1.03514e-06
1.0378e-06
1.03492e-06
1.02783e-06
1.02052e-06
1.00314e-06
9.76525e-07
9.50828e-07
9.27315e-07
9.06681e-07
8.90207e-07
8.76935e-07
8.64782e-07
8.5235e-07
8.3685e-07
8.16017e-07
7.92809e-07
7.67594e-07
7.32606e-07
6.74787e-07
5.77399e-07
4.83308e-07
4.58563e-07
5.39195e-07
7.14084e-07
8.53864e-07
9.39738e-07
9.82911e-07
9.96051e-07
9.93605e-07
9.72673e-07
9.40452e-07
9.10857e-07
8.82869e-07
8.54754e-07
8.24826e-07
7.89425e-07
7.44798e-07
6.8898e-07
6.13942e-07
4.81173e-07
3.48258e-07
2.51809e-07
1.90876e-07
1.5825e-07
1.44388e-07
1.4207e-07
1.52652e-07
1.68267e-07
1.70469e-07
1.56271e-07
1.23545e-07
8.30766e-08
5.00662e-08
2.84482e-08
1.57992e-08
8.88889e-09
5.64786e-09
4.37314e-09
3.78605e-09
3.22663e-09
2.7028e-09
2.5778e-09
2.89182e-09
3.62024e-09
4.08485e-09
4.47607e-09
5.40477e-09
7.87547e-09
1.00887e-08
1.12575e-08
1.2223e-08
1.41322e-08
1.67978e-08
1.89946e-08
2.07092e-08
2.19041e-08
2.23202e-08
2.11467e-08
1.80254e-08
1.59087e-08
1.44671e-08
1.36979e-08
1.35868e-08
1.44109e-08
1.65059e-08
1.98658e-08
2.15858e-08
2.14807e-08
1.98874e-08
1.54466e-08
9.84737e-09
6.71968e-09
5.43863e-09
5.08648e-09
5.47701e-09
6.78698e-09
8.41255e-09
9.75301e-09
1.20077e-08
1.62087e-08
2.16477e-08
2.57081e-08
2.62476e-08
2.03703e-08
1.42735e-08
6.00071e-09
1.72067e-09
9.13685e-10
1.30512e-09
4.92113e-09
8.18696e-09
8.79225e-09
8.59537e-09
1.01196e-08
1.23014e-08
1.42446e-08
1.50264e-08
1.47086e-08
1.27332e-08
1.03278e-08
9.10307e-09
8.1056e-09
6.85007e-09
4.68792e-09
4.03823e-09
5.77574e-09
8.84394e-09
9.64129e-09
8.97169e-09
8.18196e-09
7.37209e-09
6.40635e-09
5.76827e-09
5.1916e-09
4.98943e-09
4.8144e-09
4.98829e-09
4.98947e-09
4.9749e-09
4.30272e-09
3.67338e-09
3.16494e-09
2.86921e-09
2.48642e-09
2.08807e-09
1.8489e-09
1.86844e-09
2.1974e-09
2.62332e-09
3.38368e-09
4.15531e-09
4.52947e-09
4.48043e-09
4.11362e-09
3.93497e-09
3.72533e-09
3.45739e-09
3.47261e-09
4.2552e-09
4.89578e-09
5.15143e-09
5.15093e-09
4.84938e-09
4.76946e-09
4.91132e-09
5.29952e-09
6.0032e-09
6.6538e-09
7.15946e-09
7.16871e-09
6.40957e-09
5.3443e-09
4.65767e-09
3.94719e-09
3.61021e-09
3.42149e-09
3.4873e-09
3.77862e-09
4.08857e-09
4.84591e-09
5.70658e-09
5.74858e-09
5.5295e-09
5.16679e-09
5.17996e-09
5.71287e-09
6.56631e-09
6.56903e-09
5.9671e-09
5.6444e-09
5.89566e-09
6.77307e-09
7.9256e-09
8.52189e-09
8.70183e-09
8.66524e-09
8.64126e-09
8.84004e-09
8.34555e-09
7.8037e-09
8.00302e-09
9.04777e-09
1.10795e-08
1.3541e-08
1.38976e-08
1.18156e-08
9.45003e-09
1.02034e-08
1.32432e-08
1.74978e-08
2.18194e-08
2.00765e-08
1.56476e-08
1.31415e-08
1.25942e-08
1.25433e-08
1.47656e-08
1.98141e-08
2.7975e-08
3.17514e-08
2.52467e-08
1.86305e-08
1.79443e-08
1.82364e-08
1.93665e-08
2.16541e-08
2.6654e-08
3.54831e-08
4.24666e-08
4.04952e-08
3.47342e-08
3.27855e-08
3.56867e-08
3.9688e-08
4.33553e-08
4.66452e-08
5.02111e-08
5.68256e-08
6.91028e-08
9.17354e-08
1.33101e-07
1.84356e-07
2.58395e-07
3.25454e-07
3.55656e-07
3.75036e-07
3.98584e-07
4.35804e-07
5.02493e-07
5.63541e-07
6.03259e-07
6.19756e-07
6.2025e-07
6.04566e-07
5.74497e-07
5.41821e-07
5.07316e-07
4.6564e-07
4.22458e-07
4.02023e-07
3.99633e-07
4.0145e-07
3.91578e-07
3.93074e-07
4.18965e-07
4.48658e-07
4.69214e-07
4.8091e-07
4.83507e-07
4.71321e-07
4.39071e-07
3.56126e-07
2.8592e-07
2.46482e-07
2.30901e-07
2.27128e-07
2.27876e-07
2.32123e-07
2.42192e-07
2.59658e-07
2.89013e-07
3.31019e-07
3.81559e-07
4.18884e-07
4.25244e-07
3.84559e-07
3.64606e-07
3.64875e-07
3.93087e-07
4.31286e-07
4.4594e-07
4.37972e-07
3.95081e-07
3.51925e-07
3.24579e-07
3.14719e-07
3.20089e-07
3.32236e-07
3.32419e-07
2.94291e-07
2.44374e-07
2.25663e-07
2.30149e-07
2.46774e-07
2.55726e-07
2.56924e-07
2.49109e-07
2.40901e-07
2.38204e-07
2.4643e-07
2.69856e-07
2.75539e-07
2.55074e-07
2.07784e-07
1.78217e-07
2.15673e-07
4.57557e-07
5.97874e-07
6.3284e-07
6.36874e-07
6.23187e-07
5.7412e-07
4.67735e-07
3.41199e-07
2.77387e-07
2.60209e-07
2.65655e-07
3.25419e-07
4.60019e-07
5.59931e-07
6.29068e-07
6.70181e-07
6.91251e-07
7.00398e-07
6.99186e-07
6.68263e-07
6.4891e-07
6.43755e-07
6.6354e-07
7.31097e-07
7.79081e-07
7.98127e-07
7.80803e-07
6.51917e-07
3.39649e-07
1.88317e-07
1.31979e-07
1.16572e-07
1.16536e-07
1.36382e-07
1.43467e-07
1.26811e-07
8.52837e-08
4.73103e-08
2.86331e-08
1.82431e-08
1.33177e-08
1.13025e-08
1.12098e-08
1.25763e-08
1.81371e-08
2.58308e-08
3.00536e-08
3.03955e-08
2.02011e-08
1.03826e-08
7.39859e-09
1.23236e-08
2.98833e-08
3.85477e-08
2.35156e-08
5.89311e-09
2.59128e-09
4.33702e-09
9.6849e-09
1.1172e-08
9.84343e-09
7.36759e-09
6.04789e-09
5.60288e-09
5.56458e-09
5.90449e-09
6.94467e-09
8.37803e-09
1.01589e-08
1.4121e-08
1.73423e-08
1.86973e-08
2.10954e-08
2.29894e-08
1.97283e-08
1.28716e-08
1.02001e-08
1.34533e-08
9.48869e-09
5.69175e-09
9.33532e-09
1.58952e-08
1.55152e-08
9.54115e-09
5.495e-09
3.92652e-09
5.88124e-09
1.13476e-08
1.67073e-08
1.99898e-08
2.0032e-08
1.35041e-08
1.09139e-08
1.33206e-08
2.7787e-08
4.74356e-08
6.48385e-08
7.10141e-08
3.98323e-08
2.44223e-08
2.3625e-08
2.9047e-08
3.8636e-08
5.03619e-08
6.03525e-08
6.85984e-08
6.82245e-08
6.51135e-08
5.15375e-08
3.26156e-08
2.80517e-08
3.07077e-08
3.50985e-08
3.9066e-08
4.30914e-08
4.09287e-08
4.61177e-08
6.97006e-08
8.91112e-08
8.35667e-08
5.88345e-08
4.73098e-08
4.69694e-08
5.20772e-08
4.49093e-08
4.30618e-08
4.78048e-08
6.19178e-08
6.9574e-08
7.61219e-08
7.23741e-08
6.20363e-08
5.07874e-08
6.65381e-08
1.25848e-07
2.20908e-07
3.34386e-07
3.98064e-07
3.77018e-07
2.89934e-07
2.04715e-07
2.03699e-07
2.81304e-07
3.82812e-07
4.66329e-07
5.24048e-07
5.51257e-07
5.47479e-07
5.17551e-07
5.04468e-07
5.52789e-07
6.39991e-07
7.83864e-07
8.81458e-07
8.57722e-07
7.59282e-07
6.90344e-07
6.57223e-07
6.41583e-07
6.36887e-07
6.41363e-07
6.56737e-07
6.67736e-07
6.74875e-07
6.79452e-07
6.86614e-07
7.0093e-07
7.24392e-07
7.43694e-07
7.39923e-07
7.07431e-07
6.6242e-07
6.23382e-07
5.96194e-07
5.84458e-07
5.84512e-07
5.90972e-07
5.89821e-07
5.37668e-07
3.4515e-07
2.10205e-07
1.50535e-07
1.36466e-07
1.54212e-07
2.20294e-07
2.81477e-07
3.03899e-07
2.87238e-07
2.2362e-07
1.93168e-07
1.95202e-07
2.55419e-07
3.36298e-07
3.60312e-07
2.93451e-07
1.97724e-07
1.58409e-07
1.45562e-07
1.42127e-07
1.44797e-07
1.71382e-07
2.33307e-07
2.89547e-07
3.13456e-07
2.83028e-07
2.00853e-07
1.62466e-07
1.53171e-07
1.53188e-07
1.58062e-07
1.77562e-07
2.08339e-07
2.25521e-07
2.29972e-07
2.23182e-07
2.20507e-07
2.26384e-07
2.29572e-07
2.31781e-07
2.36284e-07
2.35603e-07
1.97592e-07
1.37186e-07
1.10854e-07
1.09218e-07
1.3866e-07
1.75437e-07
1.99802e-07
2.21373e-07
2.45425e-07
2.60444e-07
2.79016e-07
3.19983e-07
3.9427e-07
4.74903e-07
5.15661e-07
5.38622e-07
5.55095e-07
5.71055e-07
5.86566e-07
5.99696e-07
6.04835e-07
5.92296e-07
5.6587e-07
5.49785e-07
5.47065e-07
5.60718e-07
6.16881e-07
6.55277e-07
6.67204e-07
6.57656e-07
6.22913e-07
5.9624e-07
5.74643e-07
5.58702e-07
5.51715e-07
5.6265e-07
6.54177e-07
7.77147e-07
8.21474e-07
7.99231e-07
7.09199e-07
6.47428e-07
6.05833e-07
5.84493e-07
5.79556e-07
6.03071e-07
6.18796e-07
6.08786e-07
5.73599e-07
5.59064e-07
5.67185e-07
6.28334e-07
6.8212e-07
6.84613e-07
6.66972e-07
6.17325e-07
5.86832e-07
5.82633e-07
6.37411e-07
7.12902e-07
7.4435e-07
7.4828e-07
7.13976e-07
6.70341e-07
6.56495e-07
6.67139e-07
7.21582e-07
7.65836e-07
7.67257e-07
7.48868e-07
7.25139e-07
6.85154e-07
6.53613e-07
6.44664e-07
6.60181e-07
6.83194e-07
6.80921e-07
6.49774e-07
6.3794e-07
6.34124e-07
6.32886e-07
6.40757e-07
6.40329e-07
6.32774e-07
6.312e-07
6.35497e-07
6.39386e-07
6.37243e-07
6.3729e-07
6.49811e-07
6.7133e-07
6.80403e-07
6.7324e-07
6.50691e-07
6.28805e-07
6.19889e-07
6.20027e-07
6.20693e-07
6.01206e-07
5.72775e-07
5.51353e-07
5.13413e-07
4.51637e-07
4.118e-07
4.28584e-07
4.95403e-07
4.99661e-07
4.24521e-07
3.50981e-07
3.21012e-07
3.97723e-07
5.43431e-07
5.38184e-07
3.31685e-07
2.26075e-07
2.04301e-07
2.10015e-07
2.28143e-07
2.5596e-07
3.52851e-07
4.90899e-07
5.417e-07
4.56539e-07
2.53862e-07
1.87163e-07
2.02654e-07
3.083e-07
4.94308e-07
6.05388e-07
6.59727e-07
7.0127e-07
7.42078e-07
7.7275e-07
8.04736e-07
8.37767e-07
8.63081e-07
8.82267e-07
8.92006e-07
8.80523e-07
7.98011e-07
6.96154e-07
6.43426e-07
6.31848e-07
6.53204e-07
6.905e-07
7.6001e-07
8.28523e-07
8.60654e-07
8.68638e-07
8.58426e-07
8.39705e-07
8.26474e-07
8.07158e-07
7.81986e-07
7.67828e-07
7.61301e-07
7.55808e-07
7.4682e-07
7.29801e-07
7.11854e-07
6.78353e-07
5.35399e-07
2.29329e-07
9.52594e-08
4.40226e-08
2.53132e-08
1.64431e-08
1.15133e-08
8.60007e-09
6.48091e-09
5.00467e-09
4.48018e-09
5.12199e-09
5.41032e-09
4.67694e-09
4.50525e-09
4.60991e-09
5.75398e-09
5.88396e-09
4.63432e-09
4.16955e-09
3.42847e-09
2.97763e-09
3.98145e-09
1.07705e-08
1.28622e-08
1.13062e-08
9.89107e-09
8.10215e-09
5.67754e-09
5.95748e-09
9.34761e-09
1.09498e-08
1.07999e-08
1.16157e-08
7.77553e-09
5.23545e-09
7.39032e-09
1.3665e-08
1.62932e-08
2.19861e-08
2.61854e-08
2.26364e-08
1.73478e-08
1.55386e-08
1.25643e-08
1.00728e-08
1.41478e-08
1.73275e-08
1.98117e-08
5.15447e-08
9.92437e-08
9.33472e-08
1.41214e-07
6.31749e-07
9.2258e-08
2.52348e-08
6.30846e-08