/*--------------------------------*- C++ -*----------------------------------*\
| =========                 |                                                 |
| \\      /  F ield         | foam-extend: Open Source CFD                    |
|  \\    /   O peration     | Version:     3.1                                |
|   \\  /    A nd           | Web:         http://www.extend-project.de       |
|    \\/     M anipulation  |                                                 |
\*---------------------------------------------------------------------------*/
FoamFile
{
    version     2.0;
    format      ascii;
    class       volScalarField;
    location    "120";
    object      omega;
}
// * * * * * * * * * * * * * * * * * * * * * * * * * * * * * * * * * * * * * //

dimensions      [0 0 -1 0 0 0 0];

internalField   nonuniform List<scalar> 
212248
(
554.34
554.279
554.253
554.244
554.247
554.261
554.284
554.318
554.367
554.433
554.519
554.631
554.776
554.963
555.203
555.507
555.891
556.371
556.966
557.696
558.581
559.645
560.909
562.392
564.113
566.088
568.327
570.837
573.615
576.653
579.935
583.433
587.116
590.938
594.848
598.787
602.688
606.48
610.086
613.426
616.422
619
621.387
623.75
626.091
628.407
630.695
632.955
635.183
637.378
639.539
641.664
643.751
645.798
647.805
649.769
651.689
653.565
655.394
657.176
658.91
660.593
662.225
663.806
665.334
666.807
668.225
669.588
670.893
672.141
673.33
674.459
675.528
676.535
677.48
678.362
679.18
679.933
680.621
681.242
681.795
682.279
682.691
683.031
683.294
683.478
683.578
683.59
683.507
683.311
682.991
682.526
681.893
681.058
679.971
678.566
676.756
674.426
671.424
667.558
662.586
656.218
648.116
637.918
625.308
610.363
597.052
586.733
578.826
572.821
568.287
564.875
562.309
560.379
558.925
557.826
556.992
556.356
555.87
555.496
555.206
554.981
554.805
554.666
554.556
554.468
554.398
554.342
554.296
554.258
554.228
554.203
554.182
554.164
554.15
554.138
554.128
554.119
554.112
554.106
554.101
554.096
554.093
554.09
554.087
554.086
554.084
554.083
554.083
554.083
554.083
554.084
554.085
554.087
554.09
554.094
554.098
554.104
554.111
554.12
554.131
554.146
554.165
554.19
554.222
554.263
554.316
554.385
554.473
554.586
554.729
554.909
555.135
555.414
555.756
556.172
556.672
557.267
557.969
558.789
559.736
560.822
562.054
563.44
564.983
566.686
568.549
570.569
572.74
575.054
577.498
580.059
582.721
585.464
588.266
591.104
593.954
596.789
599.582
602.305
604.935
607.444
609.807
611.999
613.995
615.769
617.303
618.654
619.975
621.27
622.539
623.781
624.996
626.185
627.348
628.485
629.596
630.68
631.74
632.773
633.782
634.765
635.724
636.657
637.567
638.452
639.313
640.151
640.965
641.755
642.523
643.267
643.99
644.689
645.367
646.022
646.656
647.269
647.86
648.429
648.978
649.506
650.013
650.5
650.967
651.413
651.84
652.246
652.633
653
653.348
653.676
653.985
654.274
654.545
654.796
655.028
655.241
655.434
655.609
655.764
655.9
656.017
656.113
656.19
656.246
656.28
656.295
656.286
656.255
656.199
656.117
656.01
655.873
655.703
655.501
655.261
654.979
654.649
654.263
653.81
653.28
652.658
651.926
651.062
650.038
648.819
647.367
645.631
643.549
641.052
638.051
634.438
630.086
624.842
618.554
611.112
603.172
596.145
589.993
584.646
580.042
576.12
572.803
569.997
567.612
565.578
563.85
562.385
561.144
560.108
559.232
558.492
557.867
557.339
556.891
556.512
556.19
555.916
555.683
555.484
555.315
555.169
555.044
554.937
554.845
554.765
554.696
554.637
554.586
554.541
554.503
554.47
554.441
554.417
554.396
554.379
554.364
554.352
554.343
554.336
554.331
554.328
554.327
554.328
554.331
554.336
554.343
554.352
554.362
554.375
554.389
554.405
554.423
554.442
554.463
554.485
554.507
554.53
554.553
554.576
554.599
554.62
554.641
554.66
554.677
554.693
554.707
554.719
554.73
554.739
554.747
554.754
554.761
554.767
554.774
554.78
554.788
554.796
554.805
554.816
554.829
554.845
554.863
554.884
554.907
554.934
554.965
555
555.04
555.084
555.135
555.19
555.252
555.32
555.397
555.484
555.58
555.689
555.811
555.949
556.105
556.282
556.482
556.71
556.969
557.265
557.602
557.988
558.45
559.16
559.998
560.874
561.791
562.82
563.973
565.254
566.661
568.188
569.825
571.558
573.364
575.217
577.086
578.935
580.724
582.422
584.102
585.786
587.471
589.154
590.833
592.502
594.16
595.804
597.432
599.04
600.625
602.189
603.73
605.246
606.731
608.185
609.611
611.009
612.371
613.701
614.997
616.257
617.483
618.668
619.819
620.936
622.02
623.069
624.08
625.051
625.988
626.892
627.755
628.568
629.349
630.06
630.733
631.254
631.81
632.098
632.433
632.132
630.281
632.029
634.889
636.599
636.839
636.972
637.288
637.872
638.65
639.27
639.603
639.747
639.774
639.742
639.69
639.632
639.541
639.389
639.161
638.853
638.458
637.969
637.37
636.643
635.765
634.705
633.425
631.874
629.991
627.702
624.915
621.525
617.415
612.46
606.533
599.544
591.937
585.476
580.154
575.782
572.206
569.286
566.895
564.933
563.325
562.007
560.919
560.016
559.267
558.646
558.126
557.688
557.319
557.009
556.746
556.522
556.33
556.166
556.026
555.905
555.8
555.709
555.631
555.563
555.503
555.452
555.408
555.369
555.336
555.307
555.283
555.263
555.245
555.231
555.22
555.211
555.205
555.2
555.199
555.199
555.2
555.204
555.209
555.216
555.224
555.234
555.246
555.259
555.273
555.289
555.307
555.326
555.346
555.368
555.392
555.417
555.444
555.472
555.503
555.535
555.569
555.605
555.643
555.683
555.726
555.771
555.819
555.869
555.922
555.978
556.037
556.1
556.165
556.234
556.308
556.389
556.541
556.724
556.874
557.025
557.192
557.376
557.579
557.808
558.063
558.345
558.657
559.005
559.396
559.829
560.303
560.826
561.409
562.052
562.749
563.505
564.33
565.231
566.196
567.216
568.296
569.447
570.656
571.899
573.171
574.474
575.803
577.128
578.423
579.69
580.918
582.091
583.186
584.181
585.075
585.866
586.551
587.2
587.831
588.452
589.067
589.672
590.263
590.843
591.416
591.982
592.539
593.084
593.621
594.151
594.673
595.184
595.686
596.18
596.665
597.139
597.601
598.051
598.489
598.915
599.33
599.734
600.125
600.501
600.862
601.207
601.536
601.849
602.146
602.426
602.688
602.933
603.159
603.363
603.544
603.702
603.836
603.941
604.014
604.055
604.062
604.027
603.945
603.812
603.624
603.371
603.039
602.618
602.096
601.454
600.666
599.712
598.569
597.199
595.551
593.573
591.264
588.956
586.717
584.55
582.473
580.494
578.609
576.814
575.117
573.523
572.031
570.635
569.331
568.12
567.003
565.972
565.02
564.143
563.339
562.603
561.931
561.317
560.758
560.248
559.786
559.365
558.984
558.638
558.324
558.04
557.782
557.549
557.339
557.148
556.975
556.819
556.679
556.551
556.436
556.332
556.238
556.154
556.078
556.01
555.948
555.893
555.845
555.801
555.763
555.729
555.7
555.675
555.653
555.635
555.62
555.608
555.6
555.594
555.592
555.591
555.594
555.6
555.608
555.618
555.631
555.647
555.666
555.687
555.711
555.738
555.768
555.801
555.837
555.877
555.921
555.969
556.022
556.079
556.142
556.21
556.283
556.364
556.451
556.547
556.651
556.765
556.89
557.028
557.18
557.347
557.533
557.738
557.965
558.219
558.5
558.813
559.162
559.549
559.98
560.458
560.986
561.571
562.232
563.174
564.368
565.683
567.093
568.589
570.168
571.826
573.562
575.372
577.252
579.195
581.199
583.258
585.371
587.533
589.741
591.991
594.28
596.605
598.962
601.345
603.751
606.175
608.615
611.068
613.531
616.001
618.478
620.957
623.436
625.911
628.379
630.839
633.287
635.72
638.136
640.531
642.901
645.246
647.56
649.844
652.094
654.308
656.485
658.622
660.716
662.768
664.774
666.728
668.629
670.475
672.262
673.988
675.65
677.248
678.778
680.238
681.625
682.938
684.175
685.337
686.425
687.437
688.379
689.25
690.041
690.743
691.367
691.916
692.379
692.757
693.059
693.282
693.419
693.471
693.439
693.311
693.073
692.719
692.247
691.657
690.949
690.118
689.162
688.073
686.842
685.46
683.914
682.186
680.252
678.079
675.627
672.844
669.661
665.977
661.657
656.525
650.362
642.904
633.847
622.868
609.747
595.531
584.602
576.699
571.006
566.897
563.923
561.756
560.162
558.982
558.102
557.44
556.937
556.552
556.253
556.02
555.837
555.692
555.578
555.488
555.416
555.361
555.317
555.285
555.262
555.247
555.24
555.239
555.243
555.252
555.266
555.286
555.31
555.338
555.372
555.411
555.455
555.504
555.56
555.622
555.69
555.765
555.848
555.94
556.04
556.148
556.269
556.475
556.727
556.938
557.162
557.408
557.678
557.971
558.288
558.628
558.992
559.376
559.782
560.206
560.645
561.097
561.558
562.021
562.485
562.943
563.39
563.821
564.23
564.616
564.976
565.307
565.611
565.889
566.142
566.37
566.575
566.764
566.939
567.101
567.253
567.397
567.541
567.69
567.842
567.999
568.166
568.339
568.517
568.707
568.925
569.177
569.434
569.701
569.983
570.281
570.584
570.885
571.187
571.483
571.767
572.046
572.315
572.564
572.796
573.014
573.225
573.419
573.582
573.705
573.78
573.799
573.764
573.683
573.566
573.41
573.228
573.019
572.783
572.534
572.277
572.016
571.752
571.478
571.189
570.888
570.568
570.235
569.888
569.531
569.168
568.81
568.456
568.099
567.744
567.398
567.061
566.735
566.414
566.096
565.771
565.445
565.115
564.794
564.491
564.207
563.941
563.696
563.468
563.253
563.048
562.849
562.653
562.457
562.254
562.036
561.813
561.599
561.402
561.227
561.076
560.948
560.839
560.743
560.654
560.574
560.504
560.444
560.394
560.35
560.315
560.289
560.273
560.266
560.269
560.283
560.306
560.338
560.38
560.429
560.484
560.544
560.611
560.684
560.763
560.848
560.937
561.031
561.128
561.229
561.332
561.437
561.542
561.649
561.757
561.865
561.973
562.081
562.187
562.292
562.393
562.491
562.583
562.669
562.746
562.816
562.875
562.923
562.96
562.983
562.995
562.993
562.975
562.943
562.895
562.833
562.757
562.667
562.562
562.447
562.321
562.186
562.039
561.883
561.718
561.548
561.372
561.189
561.002
560.813
560.621
560.427
560.23
560.034
559.84
559.65
559.464
559.283
559.108
558.939
558.775
558.617
558.467
558.324
558.189
558.064
557.947
557.839
557.741
557.653
557.574
557.506
557.447
557.399
557.362
557.335
557.319
557.316
557.325
557.349
557.386
557.44
557.512
557.604
557.718
557.857
558.027
558.232
558.479
558.774
559.129
559.555
560.064
560.673
561.392
562.238
563.222
564.353
565.635
567.273
569.65
572.354
575.277
578.395
581.693
585.153
588.758
592.493
596.342
600.291
604.325
608.431
612.598
616.813
621.065
625.342
629.636
633.939
638.241
642.535
646.812
651.065
655.285
659.466
663.6
667.68
671.697
675.647
679.522
683.318
687.032
690.656
694.179
697.601
700.925
704.146
707.262
710.277
713.2
716.033
718.789
721.49
724.161
726.836
729.582
732.526
735.868
739.326
742.569
745.607
748.435
751.049
753.449
755.632
757.57
759.209
760.509
761.457
762.059
762.322
762.274
761.874
761.083
759.886
758.291
756.271
753.881
751.119
747.98
744.462
740.575
736.336
731.768
726.898
721.757
716.392
710.875
705.271
699.081
691.72
682.915
672.396
659.892
645.156
628.091
609.086
592.27
581.068
573.655
568.658
565.219
562.813
561.101
559.857
558.945
558.268
557.752
557.351
557.042
556.801
556.608
556.455
556.332
556.236
556.161
556.101
556.056
556.023
555.999
555.985
555.976
555.972
555.973
555.979
555.99
556.004
556.018
556.033
556.048
556.063
556.078
556.093
556.106
556.117
556.126
556.133
556.133
556.125
556.103
556.221
556.27
556.279
556.288
556.295
556.303
556.313
556.326
556.342
556.359
556.38
556.407
556.44
556.477
556.52
556.568
556.624
556.685
556.748
556.819
556.898
556.988
557.092
557.218
557.372
557.557
557.778
558.04
558.346
558.7
559.107
559.576
560.117
560.743
561.458
562.27
563.188
564.225
565.396
566.714
568.205
569.917
571.924
574.305
577.13
580.459
584.356
588.574
592.07
594.789
596.863
598.457
599.699
600.661
601.388
601.935
602.358
602.674
602.865
602.913
602.834
602.65
602.398
602.106
601.785
601.431
600.989
600.445
599.869
599.326
598.836
598.44
598.175
598.045
598.02
598.061
598.13
598.205
598.305
598.481
598.721
598.918
598.984
598.861
598.44
597.674
596.619
595.32
593.797
592.373
591.299
590.587
590.088
589.68
589.315
588.95
588.506
588.069
587.712
587.501
587.478
587.648
588.002
588.514
589.223
590.147
591.244
592.38
593.457
594.437
595.353
596.264
597.19
598.073
598.908
599.698
600.399
600.879
601.011
600.358
598.238
594.029
588.623
583.874
580.719
579.184
578.92
579.603
581.43
584.585
589.581
596.321
602.221
605.596
606.842
606.882
604.779
598.168
587.061
578.522
572.858
569.187
566.74
565.069
563.967
563.34
563.062
562.873
562.541
561.681
560.095
558.597
557.965
558.013
558.672
560.031
562.614
567.621
576.624
587.883
595.608
599.22
600.744
601.205
601.174
600.597
599.539
596.664
592.265
585.983
579.892
573.881
568.871
565.013
562.031
559.576
557.455
555.768
554.957
554.739
554.741
555.038
556.33
560.95
575.882
596.599
603.156
604.408
604.081
602.373
600.028
597.168
594.488
592.569
591.931
593.383
597.227
603.854
612.93
621.422
628.527
634.4
639.043
642.492
644.778
645.947
646.291
645.721
643.476
640.106
635.407
628.583
618.655
603.688
586.851
575.634
568.741
564.408
561.43
559.189
557.508
556.349
555.651
555.286
555.087
554.978
554.897
554.849
554.813
554.774
554.751
554.737
554.733
554.738
554.75
554.768
554.789
554.822
554.864
554.901
554.929
554.947
554.948
554.967
554.996
555.093
555.284
555.628
555.904
556.029
556.068
556.022
555.936
555.893
555.965
556.132
556.367
556.649
556.963
557.35
557.885
558.658
559.726
561.023
562.534
564.071
564.961
564.978
564.169
563.028
562.225
561.554
561.034
560.891
561.152
561.573
561.859
561.854
561.539
560.9
559.86
558.301
556.811
555.87
555.367
555.118
555.065
555.226
555.591
555.949
556.201
556.346
556.424
556.465
556.427
556.3
556.105
555.936
555.854
555.846
555.885
555.994
556.16
556.358
556.527
556.611
556.684
556.772
556.896
556.975
556.936
556.702
556.407
556.363
556.415
556.453
556.565
556.569
556.562
556.634
556.755
556.959
557.166
557.287
557.365
557.392
557.419
557.403
557.359
557.275
557.235
557.313
557.543
557.996
558.71
559.661
560.778
561.582
562.034
562.42
562.796
563.658
564.271
565.137
568.2
573.085
577.475
581.505
584.738
586.486
587.17
586.138
585.331
585.127
585.292
585.581
585.873
586.321
587.034
588.193
589.905
592.605
596.944
602.417
607.584
612.809
621.055
631.609
638.998
644.199
649.381
655.644
660.18
662.166
662.4
661.295
658.111
654.99
652.398
650.22
648.332
646.541
644.585
642.135
639.876
637.949
636.243
634.671
633.177
631.746
630.499
629.588
628.975
628.547
628.429
628.723
629.534
630.219
630.426
630.205
629.655
629.089
627.744
625.688
623.708
621.92
620.379
619.158
618.172
617.254
616.304
615.063
613.408
611.613
609.701
607.068
602.742
595.515
588.581
586.758
592.62
605.593
616.167
622.752
626.092
627.115
626.929
625.322
622.848
620.589
618.457
616.32
614.048
611.368
608.006
603.826
598.248
588.5
578.906
572.039
567.801
565.629
564.73
564.573
565.205
566.181
566.305
565.309
563.025
560.21
557.922
556.428
555.556
555.081
554.858
554.771
554.731
554.694
554.658
554.649
554.669
554.722
554.772
554.815
554.881
555.043
555.18
555.249
555.31
555.44
555.623
555.774
555.893
555.976
556.004
555.924
555.709
555.563
555.464
555.414
555.427
555.504
555.65
555.861
555.973
555.97
555.865
555.563
555.176
554.955
554.859
554.827
554.849
554.943
555.124
555.342
555.628
555.962
556.289
556.419
556.339
555.88
555.455
554.884
554.592
554.55
554.584
554.824
555.103
555.322
555.36
555.382
555.477
555.612
555.708
555.729
555.612
555.446
555.288
555.119
554.971
554.805
554.758
554.891
555.124
555.199
555.169
555.122
555.065
554.941
554.884
554.842
554.83
554.817
554.839
554.931
555.125
555.129
554.982
554.817
554.801
554.843
554.83
554.75
554.666
554.695
554.822
555.091
555.268
555.24
555.031
554.815
554.746
554.729
554.714
554.717
554.77
554.817
554.86
554.871
554.843
554.812
554.81
554.841
554.899
554.984
555.195
555.314
555.235
555.047
554.864
554.745
554.72
554.713
554.727
554.748
554.765
554.815
554.875
554.878
554.862
554.837
554.837
554.902
555.096
555.259
555.214
555.077
554.938
554.938
555.018
555.062
555.082
555.11
555.221
555.227
555.128
555.026
555.021
555.093
555.238
555.494
555.905
555.762
555.366
555.208
555.405
555.758
556.365
556.292
555.802
555.418
555.342
555.337
555.492
555.875
556.687
557.293
556.737
555.889
555.719
555.734
555.81
555.965
556.322
557.104
557.886
557.865
557.251
556.81
556.936
557.215
557.512
557.775
558.009
558.419
559.26
560.832
563.792
567.84
573.421
577.959
579.639
580.918
582.596
585.279
590.12
594.642
597.756
599.119
599.182
597.883
595.419
592.973
590.445
587.412
584.296
582.956
582.955
583.071
582.148
582.152
584.009
586.168
587.722
588.694
588.952
588.078
585.718
579.643
574.527
571.683
570.575
570.312
570.375
570.677
571.386
572.614
574.691
577.716
581.546
584.387
584.805
581.623
580.077
580.078
582.146
585.028
586.201
585.582
582.33
579.201
577.232
576.522
576.964
578.069
578.227
575.479
571.653
570.199
570.503
571.698
572.359
572.458
571.903
571.296
571.098
571.765
573.572
574.076
572.657
569.112
566.963
569.698
587.134
597.21
599.691
599.99
599.024
595.397
587.589
578.445
573.889
572.681
573.258
577.806
587.513
594.452
599.403
602.447
604.061
604.778
604.665
602.312
600.863
600.482
602.04
607.206
610.855
612.267
610.888
601.217
578.384
567.626
563.666
562.581
562.609
564.298
565.078
563.981
560.975
558.094
556.617
555.787
555.397
555.252
555.244
555.341
555.735
556.281
556.585
556.61
555.894
555.238
555.151
555.766
557.243
557.877
556.608
555.11
554.699
554.772
555.138
555.252
555.173
555.025
554.996
555.067
554.97
554.893
554.952
555.047
555.174
555.46
555.705
555.85
556.291
556.662
556.418
555.728
555.256
555.399
555.135
555.141
556.627
555.851
555.618
555.166
554.857
554.747
554.903
555.279
555.757
556.164
556.354
556.012
555.79
555.566
556.412
557.777
559.274
560.346
558.359
556.584
556.148
556.506
557.15
557.956
558.666
559.391
559.622
559.696
558.881
557.304
556.546
556.62
556.917
557.182
557.451
557.3
557.72
559.959
561.85
561.268
559.032
558.093
558.069
558.506
558.15
558.039
558.254
559.609
559.873
559.848
559.493
558.764
558.021
559.28
563.442
569.946
577.95
582.617
581.447
575.389
569.301
568.801
574.193
581.451
587.668
592.155
594.291
594.026
591.579
590.366
593.858
600.52
612.633
620.639
617.584
609.272
603.978
601.499
600.358
600.038
600.373
601.501
602.278
602.796
603.134
603.666
604.763
606.879
608.927
608.608
605.453
601.883
598.973
596.989
596.34
596.714
597.502
597.484
593.387
578.983
569.189
564.969
563.972
565.2
569.891
574.565
576.411
575.222
570.281
567.934
568.06
572.567
579.019
580.977
575.788
568.388
565.528
564.621
564.373
564.544
566.392
570.924
575.514
577.568
575.28
568.743
565.809
565.148
565.15
565.492
566.876
569.291
570.723
571.053
570.358
570.104
570.767
571.142
571.299
571.602
571.562
568.677
564.099
562.172
562.156
564.49
567.138
568.576
569.916
571.617
572.802
574.198
577.108
582.286
588.083
591.063
592.748
593.945
595.108
596.371
597.676
598.295
597.371
594.985
593.576
593.349
594.342
598.477
601.378
602.435
601.873
599.326
597.211
595.421
594.205
593.685
594.507
601.698
611.651
615.012
612.511
605.416
600.77
597.836
596.463
596.151
597.776
598.719
597.929
595.343
594.439
595.438
600.674
604.373
603.684
602.22
598.558
596.571
596.674
600.848
605.731
607.983
608.276
605.724
602.476
601.492
602.548
607.073
610.622
610.082
608.356
606.56
603.602
601.26
600.623
602.141
604.562
604.27
601.094
600.118
599.884
599.925
600.635
600.626
599.933
599.716
600.01
600.29
600.109
600.075
600.976
602.746
604.173
604.153
601.479
599.48
598.77
598.772
598.858
597.792
596.191
594.385
591.021
586.478
583.863
586.031
591.529
590.332
584.524
579.223
577.258
583.731
595.52
594.596
578.062
570.322
568.789
569.201
570.476
572.42
579.327
590.027
595.154
588.153
572.359
567.603
568.705
576.211
589.688
597.968
602.065
605.152
608.147
610.547
613.53
616.011
617.201
618.534
619.832
619.468
613.246
604.972
600.563
599.632
601.217
604.054
609.336
614.573
617.033
617.642
616.856
615.433
614.432
612.971
611.062
609.982
609.468
609.031
608.342
607.06
605.713
603.243
592.754
570.756
561.36
557.814
556.536
555.927
555.58
555.367
555.213
555.097
555.057
555.167
555.282
555.306
555.324
555.352
555.476
555.528
555.481
555.526
555.528
555.504
555.624
556.628
557.512
557.864
557.87
557.433
556.861
556.779
557.28
557.769
558.133
558.536
558.781
559.515
560.69
561.406
560.694
560.518
560.694
560.317
559.81
560.15
561.131
562.009
563.395
564.347
564.978
567.582
571.25
572.081
577.751
614.95
576.527
581.562
598.669
610.794
616.557
622.414
602.424
692.884
666.555
796.308
719.919
719.641
795.883
785.913
601.922
609.007
791.156
875.828
1160.29
1378.79
97.7596
102.763
103.897
104.501
104.963
105.383
105.784
106.187
106.606
107.056
107.543
108.075
108.657
109.289
109.967
110.68
111.426
112.21
113.039
113.92
114.852
115.833
116.862
117.937
119.055
120.211
121.4
122.615
123.847
125.09
126.334
127.569
128.786
129.975
131.129
132.239
133.302
134.313
135.271
136.182
137.052
137.895
138.723
139.541
140.346
141.138
141.917
142.683
143.435
144.172
144.894
145.601
146.292
146.967
147.625
148.266
148.889
149.494
150.08
150.648
151.196
151.724
152.232
152.718
153.183
153.625
154.044
154.44
154.81
155.155
155.472
155.761
156.02
156.248
156.443
156.602
156.723
156.805
156.843
156.836
156.78
156.668
156.498
156.264
155.961
155.582
155.12
154.568
153.92
153.16
152.277
151.261
150.075
148.686
147.09
145.28
143.247
140.99
138.518
135.854
133.041
130.143
127.259
124.509
122.039
120.015
118.517
117.447
116.701
116.195
115.868
115.671
115.571
115.54
115.56
115.618
115.705
115.811
115.931
116.06
116.196
116.335
116.475
116.616
116.753
116.888
117.018
117.143
117.264
117.38
117.491
117.596
117.697
117.792
117.882
117.967
118.048
118.125
118.198
118.266
118.332
118.394
118.454
118.511
118.567
118.621
118.674
118.728
118.782
118.836
118.892
118.951
119.013
119.078
119.149
119.225
119.307
119.396
119.495
119.603
119.719
119.848
119.99
120.15
120.335
120.549
120.792
121.045
121.307
121.585
121.892
122.231
122.603
123.007
123.446
123.92
124.43
124.978
125.565
126.187
126.84
127.523
128.233
128.968
129.726
130.501
131.292
132.092
132.898
133.706
134.509
135.304
136.084
136.846
137.584
138.295
138.974
139.619
140.227
140.795
141.325
141.816
142.27
142.69
143.079
143.442
143.785
144.117
144.44
144.755
145.06
145.357
145.646
145.926
146.198
146.462
146.718
146.966
147.206
147.439
147.664
147.881
148.092
148.295
148.49
148.679
148.861
149.036
149.204
149.365
149.519
149.667
149.809
149.943
150.071
150.193
150.308
150.416
150.518
150.614
150.703
150.786
150.862
150.931
150.994
151.05
151.098
151.14
151.173
151.2
151.218
151.228
151.229
151.222
151.205
151.179
151.144
151.098
151.041
150.974
150.894
150.802
150.696
150.576
150.439
150.282
150.105
149.909
149.692
149.452
149.189
148.917
148.62
148.284
147.905
147.481
147.009
146.485
145.902
145.255
144.54
143.752
142.886
141.936
140.898
139.768
138.542
137.221
135.809
134.308
132.731
131.092
129.413
127.724
126.063
124.48
123.036
121.789
120.743
119.872
119.155
118.573
118.114
117.765
117.514
117.357
117.282
117.26
116.543
116.964
116.995
117.049
117.119
117.205
117.304
117.411
117.52
117.628
117.731
117.823
117.9
117.959
117.994
118.004
117.982
117.925
117.831
117.696
117.517
117.292
117.019
116.696
116.32
115.89
115.41
114.891
114.336
113.751
113.146
112.529
111.913
111.309
110.73
110.192
109.709
109.296
108.968
108.738
108.616
108.616
108.753
109.032
109.467
110.065
110.704
111.287
111.82
112.312
112.772
113.213
113.65
114.097
114.57
115.081
115.648
116.289
117.023
117.869
118.854
120.007
121.315
122.664
124.043
125.448
126.873
128.32
129.786
131.272
132.782
134.304
135.851
137.424
139.038
140.705
142.373
144.032
145.71
147.409
149.132
150.883
152.642
154.421
156.22
158.026
159.823
161.606
163.38
165.169
166.959
168.745
170.523
172.298
174.077
175.857
177.631
179.398
181.156
182.91
184.658
186.401
188.135
189.857
191.572
193.279
194.977
196.668
198.347
200.014
201.665
203.297
204.908
206.499
208.068
209.609
211.121
212.604
214.057
215.483
216.884
218.255
219.588
220.882
222.139
223.353
224.518
225.637
226.718
227.747
228.716
229.629
230.493
231.319
232.091
232.788
233.43
234.02
234.54
235.008
235.43
235.798
236.111
236.338
236.489
236.572
236.588
236.544
236.428
236.223
235.934
235.588
235.184
234.724
234.264
233.813
233.448
232.894
232.755
232.188
234.252
236.453
25.4419
31.2887
33.4473
34.589
35.2512
35.6407
35.921
36.1508
36.3882
36.6578
36.9637
37.3266
37.7607
38.2668
38.8355
39.3896
39.8449
40.2282
40.5677
40.8832
41.1862
41.4831
41.7769
42.069
42.3597
42.6485
42.9348
43.218
43.4973
43.772
44.0415
44.3053
44.5631
44.8145
45.0596
45.2983
45.531
45.7578
45.9792
46.1955
46.407
46.614
46.8162
47.0134
47.2054
47.3917
47.5722
47.7464
47.9141
48.0749
48.2285
48.3746
48.5126
48.642
48.7623
48.8733
48.9748
49.0666
49.1484
49.2195
49.2797
49.3286
49.3655
49.3902
49.4021
49.401
49.386
49.3562
49.3114
49.2513
49.1752
49.0827
48.9734
48.847
48.7031
48.5416
48.3624
48.166
47.9527
47.7224
47.4746
47.2097
46.9285
46.632
46.3217
45.9981
45.6624
45.3166
44.9626
44.603
44.2408
43.8796
43.5192
43.162
42.8143
42.4812
42.1679
41.8797
41.6219
41.3994
41.2167
41.0771
40.9822
40.9312
40.9204
40.9436
40.9956
41.0671
41.152
41.2459
41.346
41.4495
41.5546
41.6604
41.7662
41.8712
41.9751
42.0776
42.1785
42.2778
42.3753
42.4707
42.5641
42.6556
42.7453
42.8332
42.9196
43.0043
43.0875
43.1692
43.2498
43.3292
43.4075
43.485
43.5617
43.638
43.7141
43.79
43.8659
43.9419
44.0183
44.0951
44.1726
44.2511
44.3306
44.4115
44.4937
44.5777
44.6635
44.7511
44.8411
44.9337
45.0287
45.1263
45.2268
45.3306
45.4374
45.5472
45.6608
45.7777
45.8978
46.0221
46.1501
46.2823
46.4188
46.5593
46.7034
46.8495
46.9975
47.147
47.2988
47.4532
47.6102
47.7691
47.9294
48.0907
48.2525
48.4142
48.5754
48.7354
48.8938
49.0499
49.2033
49.3533
49.4994
49.641
49.7775
49.9086
50.0337
50.1526
50.2646
50.3697
50.4675
50.558
50.6411
50.7168
50.7853
50.8468
50.9015
50.9498
50.9921
51.0289
51.0607
51.0878
51.1106
51.1296
51.1449
51.1568
51.1652
51.1703
51.1719
51.17
51.1646
51.1557
51.1433
51.1274
51.1079
51.0848
51.0582
51.0278
50.9938
50.9561
50.9147
50.8696
50.8205
50.7674
50.7101
50.6486
50.583
50.5133
50.4393
50.3609
50.278
50.1906
50.0986
50.0018
49.9
49.793
49.6808
49.5634
49.441
49.3133
49.1799
49.0408
48.8954
48.7438
48.5858
48.4213
48.2501
48.0721
47.8874
47.696
47.4975
47.2915
47.0779
46.8568
46.6281
46.3913
46.1465
45.894
45.6333
45.3639
45.086
44.7994
44.5039
44.1989
43.8851
43.5633
43.2336
42.8961
42.551
42.1998
41.8428
41.4782
41.1068
40.7302
40.3482
39.9621
39.5726
39.1807
38.7882
38.3967
38.0081
37.6242
37.247
36.8788
36.5225
36.1809
35.8568
35.5526
35.2705
35.0122
34.7793
34.5727
34.3928
34.239
34.1101
34.0036
33.9164
33.8459
33.7904
33.7485
33.7195
33.7015
33.6921
33.6891
33.6877
33.6806
33.5368
33.6797
33.7006
33.7254
33.7494
33.7787
33.8095
33.8449
33.8835
33.9261
33.9729
34.0243
34.081
34.1431
34.2101
34.2827
34.3616
34.4474
34.5399
34.6401
34.752
34.8763
35.0112
35.1585
35.3179
35.4901
35.6793
35.8904
36.1254
36.3866
36.6776
37.0036
37.3703
37.784
38.2506
38.777
39.3751
40.0573
40.8285
41.6553
42.5319
43.4536
44.4136
45.4055
46.4241
47.461
48.5072
49.5515
50.5881
51.6096
52.6109
53.5911
54.5509
55.4888
56.4
57.2789
58.1232
58.9297
59.6943
60.4149
61.0918
61.7303
62.3411
62.9323
63.5032
64.0508
64.5745
65.0778
65.561
66.0324
66.495
66.9446
67.389
67.8398
68.3135
68.8511
69.4024
69.9267
70.4565
70.9972
71.5646
72.1644
72.7777
73.4141
74.0767
74.7614
75.4496
76.1359
76.8219
77.5294
78.2527
78.9824
79.7201
80.4689
81.2304
81.9978
82.7639
83.5241
84.2754
85.0163
85.745
86.4576
87.1509
87.8237
88.4795
89.1159
89.7298
90.3233
90.8943
91.4424
91.9673
92.4657
92.9376
93.3873
93.8142
94.2152
94.5912
94.9399
95.2581
95.5457
95.8025
96.0266
96.2159
96.3709
96.4924
96.5786
96.626
96.6354
96.609
96.5417
96.4293
96.271
96.0681
95.8271
95.5467
95.2182
94.8427
94.4228
93.9543
93.4409
92.8895
92.3026
91.6798
91.0091
90.2839
89.5047
88.6753
87.8033
86.8926
85.9382
84.9412
83.9169
82.8753
81.8048
80.7701
79.7179
78.7806
77.7265
76.9404
75.7231
76.1998
77.3204
8.22703
10.8944
12.1063
12.7361
12.9589
12.8988
12.7534
12.5809
12.4732
12.464
12.5339
12.7301
13.0851
13.6162
14.3209
15.0986
15.6498
15.9974
16.2161
16.3593
16.4612
16.5415
16.6111
16.6755
16.7374
16.7979
16.8574
16.9162
16.9744
17.032
17.0889
17.1451
17.2006
17.2554
17.3094
17.3625
17.4149
17.4665
17.5172
17.5672
17.6163
17.6647
17.7122
17.7587
17.8043
17.8487
17.8919
17.9338
17.9745
18.014
18.0522
18.0894
18.1254
18.1599
18.1929
18.2244
18.2547
18.2841
18.3125
18.34
18.3667
18.3926
18.4178
18.4422
18.4658
18.4888
18.5113
18.5332
18.5548
18.5762
18.5975
18.6189
18.6405
18.6624
18.6849
18.708
18.7319
18.7569
18.7831
18.8107
18.84
18.8709
18.9038
18.9388
18.976
19.0155
19.0575
19.1021
19.1494
19.1994
19.252
19.3075
19.3653
19.4249
19.4866
19.5503
19.6157
19.6825
19.7505
19.8197
19.8897
19.9602
20.0308
20.1012
20.1709
20.2395
20.3069
20.3729
20.4371
20.4997
20.5606
20.6197
20.677
20.7326
20.7864
20.8384
20.8884
20.9366
20.983
21.0276
21.0703
21.1111
21.1501
21.1873
21.2226
21.2563
21.2882
21.3185
21.3469
21.3737
21.3988
21.4223
21.444
21.4642
21.4827
21.4997
21.5153
21.5293
21.5419
21.5529
21.5626
21.5707
21.5775
21.5828
21.5868
21.5894
21.5906
21.5905
21.5891
21.5862
21.582
21.5766
21.5698
21.5616
21.5522
21.5414
21.5293
21.5157
21.5009
21.4845
21.4667
21.4476
21.427
21.405
21.3817
21.357
21.3309
21.303
21.2731
21.2412
21.2075
21.1723
21.1357
21.0974
21.0575
21.0158
20.9723
20.927
20.88
20.8311
20.7805
20.7281
20.6742
20.6186
20.5615
20.5028
20.4426
20.381
20.3181
20.2539
20.1883
20.1215
20.0536
19.9847
19.9147
19.8438
19.7719
19.6991
19.6256
19.5512
19.4759
19.3998
19.3231
19.2457
19.1678
19.0892
19.0102
18.9312
18.8523
18.773
18.6931
18.6127
18.5316
18.4501
18.3682
18.2859
18.2031
18.1198
18.0358
17.9513
17.8664
17.7811
17.6954
17.6092
17.5225
17.4353
17.3477
17.2598
17.1715
17.0831
16.9944
16.9056
16.8167
16.7276
16.6384
16.5491
16.4598
16.3703
16.2811
16.192
16.1032
16.0148
15.9266
15.8388
15.7512
15.6641
15.5773
15.4911
15.4054
15.3203
15.236
15.1525
15.0698
14.988
14.9071
14.8273
14.7486
14.6712
14.595
14.5203
14.4469
14.375
14.3046
14.2358
14.1687
14.1033
14.0397
13.9782
13.9188
13.8615
13.8065
13.7541
13.7044
13.6569
13.6117
13.5692
13.5293
13.4919
13.4567
13.4239
13.3936
13.3658
13.3405
13.3177
13.2976
13.2801