/*--------------------------------*- C++ -*----------------------------------*\
| =========                 |                                                 |
| \\      /  F ield         | foam-extend: Open Source CFD                    |
|  \\    /   O peration     | Version:     3.1                                |
|   \\  /    A nd           | Web:         http://www.extend-project.de       |
|    \\/     M anipulation  |                                                 |
\*---------------------------------------------------------------------------*/
FoamFile
{
    version     2.0;
    format      ascii;
    class       volScalarField;
    location    "120";
    object      p;
}
// * * * * * * * * * * * * * * * * * * * * * * * * * * * * * * * * * * * * * //

dimensions      [1 -1 -2 0 0 0 0];

internalField   nonuniform List<scalar> 
212248
(
3488.61
3496.42
3504.19
3512.03
3519.97
3528.03
3536.24
3544.63
3553.25
3562.14
3571.51
3581.71
3593.77
3616.24
3640.66
3656.72
3670.84
3684.03
3696.69
3709.03
3721.15
3733.15
3745.05
3756.9
3768.72
3780.53
3792.32
3804.12
3815.91
3827.72
3839.52
3851.34
3863.15
3874.97
3886.78
3898.59
3910.39
3922.18
3933.95
3945.7
3957.42
3969.11
3980.77
3992.38
4003.94
4015.44
4026.89
4038.27
4049.57
4060.8
4071.95
4083.01
4093.96
4104.82
4115.57
4126.2
4136.72
4147.1
4157.36
4167.47
4177.44
4187.26
4196.92
4206.41
4215.73
4224.86
4233.79
4242.52
4251.03
4259.3
4267.34
4275.13
4282.68
4289.98
4297.02
4303.81
4310.34
4316.61
4322.63
4328.38
4333.88
4339.12
4344.11
4348.84
4353.32
4357.54
4361.52
4365.25
4368.73
4371.97
4374.96
4377.92
4381.01
4383.83
4386.23
4388.32
4390.12
4391.66
4392.95
4393.97
4394.75
4395.28
4395.57
4395.61
4395.42
4394.98
4394.3
4393.38
4392.21
4390.8
4389.16
4387.28
4385.16
4382.82
4380.24
4377.44
4374.42
4371.17
4367.71
4364.04
4360.16
4356.07
4351.77
4347.28
4342.59
4337.71
4332.64
4327.39
4321.96
4316.36
4310.58
4304.65
4298.55
4292.3
4285.89
4279.34
4272.65
4265.83
4258.87
4251.79
4244.59
4237.28
4229.85
4222.32
4214.69
4206.97
4199.16
4191.26
4183.29
4175.25
4167.13
4158.96
4150.72
4142.44
4134.11
4125.74
4117.33
4108.89
4100.43
4091.95
4083.45
4074.95
4066.45
4057.96
4049.49
4041
4032.49
4023.94
4015.35
4006.28
3997.29
3988.48
3979.82
3971.23
3962.73
3954.29
3945.91
3937.6
3929.36
3921.19
3913.08
3905.04
3897.07
3889.18
3881.36
3873.62
3865.95
3858.36
3850.86
3843.43
3836.09
3828.84
3821.67
3814.59
3807.61
3800.71
3793.9
3787.19
3780.57
3774.05
3767.62
3761.29
3755.06
3748.92
3742.89
3736.95
3731.11
3725.38
3719.74
3714.2
3708.77
3703.43
3698.19
3693.05
3688.01
3683.07
3678.23
3673.48
3668.83
3664.28
3659.82
3655.46
3651.19
3647.02
3642.93
3638.94
3635.05
3631.24
3627.52
3623.89
3620.35
3616.9
3613.53
3610.25
3607.06
3603.95
3600.92
3597.98
3595.12
3592.34
3589.64
3587.02
3584.49
3582.03
3579.64
3577.34
3575.11
3572.95
3570.88
3568.87
3566.94
3565.08
3563.29
3561.57
3559.93
3558.35
3556.84
3555.4
3554.03
3552.73
3551.49
3550.32
3549.21
3548.17
3547.2
3546.29
3545.44
3544.66
3543.94
3543.28
3542.7
3542.17
3541.68
3541.27
3540.94
3540.67
3540.44
3540.27
3540.16
3540.1
3540.09
3540.16
3540.3
3540.5
3540.75
3541.05
3541.42
3541.85
3542.35
3542.9
3543.51
3544.18
3544.91
3545.7
3546.54
3547.44
3548.39
3549.42
3550.52
3551.69
3552.94
3554.26
3555.65
3557.11
3558.65
3560.26
3561.94
3563.71
3565.56
3567.48
3569.47
3571.53
3573.68
3575.9
3578.19
3580.57
3583.03
3585.56
3588.18
3590.88
3593.67
3596.53
3599.48
3602.52
3605.64
3608.84
3612.13
3615.51
3618.97
3622.52
3626.15
3629.87
3633.68
3637.58
3641.57
3645.64
3649.8
3654.05
3658.38
3662.8
3667.31
3671.91
3676.6
3681.37
3686.22
3691.17
3696.2
3701.32
3706.52
3711.8
3717.17
3722.62
3728.16
3733.78
3739.49
3745.27
3751.13
3757.07
3763.09
3769.19
3775.37
3781.62
3787.96
3794.36
3800.85
3807.41
3814.04
3820.75
3827.53
3834.38
3841.3
3848.3
3855.36
3862.49
3869.68
3876.94
3884.27
3891.65
3899.1
3906.61
3914.18
3921.81
3929.49
3937.23
3945.02
3952.86
3960.74
3968.67
3976.65
3984.66
3992.71
4000.8
4008.91
4017.06
4025.24
4033.44
4041.66
4049.9
4058.14
4066.39
4074.64
4082.9
4091.17
4099.44
4107.71
4115.96
4124.2
4132.43
4140.63
4148.81
4156.97
4165.09
4173.18
4181.23
4189.24
4197.2
4205.11
4212.96
4220.76
4228.5
4236.17
4243.78
4251.31
4258.76
4266.13
4273.41
4280.61
4287.71
4294.71
4301.62
4308.42
4315.11
4321.68
4328.15
4334.49
4340.71
4346.8
4352.76
4358.58
4364.27
4369.81
4375.21
4380.46
4385.56
4390.51
4395.29
4399.91
4404.37
4408.67
4412.79
4416.74
4420.52
4424.12
4427.54
4430.78
4433.84
4436.72
4439.4
4441.9
4444.22
4446.34
4448.28
4450.02
4451.58
4452.96
4454.19
4455.28
4456.12
4456.85
4457.84
4457.17
4453.25
4449.5
4445.85
4442.13
4438.27
4434.25
4430.05
4425.62
4421
4416.21
4411.24
4406.03
4400.61
4394.99
4389.18
4383.16
4376.95
4370.54
4363.94
4357.15
4350.16
4342.99
4335.62
4328.07
4320.33
4312.41
4304.29
4296
4287.52
4278.87
4270.03
4261.03
4251.86
4242.54
4233.08
4223.49
4213.75
4203.88
4193.87
4183.72
4173.44
4163.04
4152.51
4141.86
4131.1
4120.22
4109.25
4098.17
4086.99
4075.72
4064.37
4052.94
4041.42
4029.84
4018.18
4006.47
3994.69
3982.86
3970.99
3959.07
3947.11
3935.12
3923.1
3911.06
3899
3886.92
3874.84
3862.75
3850.66
3838.57
3826.49
3814.43
3802.38
3790.35
3778.35
3766.37
3754.44
3742.54
3730.69
3718.88
3707.13
3695.43
3683.79
3672.22
3660.71
3649.27
3637.9
3626.6
3615.39
3604.25
3593.2
3582.24
3571.37
3560.59
3549.9
3539.31
3528.81
3518.42
3508.14
3497.95
3487.88
3477.91
3468.05
3458.3
3448.67
3439.15
3429.74
3420.45
3411.28
3402.22
3393.28
3384.46
3375.76
3367.17
3358.71
3350.37
3342.14
3334.03
3326.04
3318.17
3310.42
3302.79
3295.27
3287.87
3280.58
3273.41
3266.35
3259.41
3252.58
3245.86
3239.25
3232.75
3226.36
3220.07
3213.89
3207.82
3201.84
3195.97
3190.2
3184.53
3178.96
3173.49
3168.11
3162.82
3157.63
3152.54
3147.53
3142.61
3137.78
3133.04
3128.38
3123.81
3119.33
3114.93
3110.61
3106.38
3102.22
3098.15
3094.16
3090.25
3086.41
3082.66
3078.98
3075.38
3071.86
3068.41
3065.03
3061.73
3058.51
3055.35
3052.27
3049.26
3046.32
3043.44
3040.64
3037.9
3035.23
3032.62
3030.08
3027.6
3025.18
3022.82
3020.53
3018.29
3016.13
3014.03
3012
3010.03
3008.11
3006.25
3004.44
3002.69
3000.99
2999.34
2997.74
2996.2
2994.7
2993.26
2991.86
2990.51
2989.22
2987.97
2986.76
2985.61
2984.5
2983.44
2982.42
2981.45
2980.52
2979.64
2978.79
2978
2977.24
2976.53
2975.86
2975.24
2974.67
2974.13
2973.65
2973.21
2972.81
2972.46
2972.16
2971.9
2971.69
2971.52
2971.4
2971.33
2971.31
2971.33
2971.41
2971.53
2971.71
2971.93
2972.21
2972.54
2972.93
2973.36
2973.86
2974.4
2975.01
2975.67
2976.39
2977.17
2978.01
2978.91
2979.87
2980.9
2981.99
2983.15
2984.38
2985.67
2987.04
2988.48
2989.98
2991.57
2993.22
2994.96
2996.77
2998.65
3000.62
3002.67
3004.8
3007.01
3009.3
3011.68
3014.14
3016.69
3019.33
3022.05
3024.87
3027.77
3030.76
3033.84
3037.02
3040.28
3043.65
3047.1
3050.65
3054.3
3058.04
3061.88
3065.82
3069.86
3073.99
3078.23
3082.56
3087
3091.53
3096.16
3100.9
3105.73
3110.67
3115.7
3120.82
3126.05
3131.41
3136.83
3142.35
3147.96
3153.66
3159.44
3165.33
3171.3
3177.35
3183.5
3189.71
3196.01
3202.38
3208.83
3215.34
3221.91
3228.55
3235.25
3242
3248.81
3255.67
3262.57
3269.51
3276.49
3283.49
3290.52
3297.58
3304.64
3311.72
3318.8
3325.88
3332.95
3340
3347.03
3354.04
3361
3367.93
3374.81
3381.63
3388.39
3395.07
3401.68
3408.19
3414.61
3420.93
3427.14
3433.23
3439.19
3445.01
3450.69
3456.22
3461.6
3466.8
3471.83
3476.68
3481.33
3485.78
3490.03
3494.06
3497.86
3501.44
3504.77
3507.87
3510.7
3513.28
3515.59
3517.64
3519.4
3520.88
3522.06
3522.96
3523.55
3523.84
3523.83
3523.49
3522.84
3521.88
3520.58
3518.95
3516.99
3514.7
3512.06
3509.09
3505.77
3502.11
3498.12
3493.89
3489.37
3484.46
3479.19
3473.57
3467.63
3461.34
3454.72
3447.78
3440.5
3432.9
3424.97
3416.71
3408.13
3399.24
3390.04
3380.53
3370.71
3360.59
3350.17
3339.47
3328.48
3317.22
3305.69
3293.89
3281.83
3269.51
3256.95
3244.14
3231.1
3217.83
3204.35
3190.66
3176.79
3162.75
3148.57
3134.25
3119.81
3105.24
3090.55
3075.76
3060.88
3045.91
3030.87
3015.78
3000.63
2985.46
2970.27
2955.08
2939.9
2924.74
2909.61
2894.52
2879.48
2864.5
2849.59
2834.78
2820.06
2805.46
2790.97
2776.6
2762.37
2748.28
2734.35
2720.57
2706.96
2693.52
2680.26
2667.19
2654.3
2641.62
2629.13
2616.85
2604.78
2592.92
2581.27
2569.84
2558.63
2547.64
2536.87
2526.32
2515.99
2505.88
2496
2486.34
2476.9
2467.68
2458.67
2449.89
2441.31
2432.95
2424.8
2416.86
2409.11
2401.57
2394.22
2387.07
2380.11
2373.33
2366.73
2360.31
2354.06
2347.99
2342.08
2336.33
2330.74
2325.3
2320.01
2314.87
2309.87
2305.01
2300.29
2295.7
2291.23
2286.88
2282.65
2278.54
2274.53
2270.63
2266.84
2263.14
2259.53
2256.01
2252.57
2249.22
2245.94
2242.73
2239.6
2236.52
2233.51
2230.57
2227.7
2224.88
2222.11
2219.4
2216.72
2214.1
2211.51
2208.97
2206.46
2204
2201.57
2199.18
2196.82
2194.49
2192.19
2189.93
2187.69
2185.48
2183.3
2181.14
2179.01
2176.9
2174.81
2172.75
2170.7
2168.68
2166.68
2164.7
2162.74
2160.8
2158.88
2156.97
2155.09
2153.22
2151.38
2149.55
2147.74
2145.95
2144.17
2142.42
2140.67
2138.95
2137.24
2135.55
2133.87
2132.21
2130.57
2128.94
2127.32
2125.72
2124.13
2122.56
2121
2119.46
2117.93
2116.42
2114.92
2113.44
2111.97
2110.52
2109.08
2107.66
2106.26
2104.87
2103.5
2102.14
2100.8
2099.48
2098.17
2096.89
2095.62
2094.37
2093.14
2091.93
2090.74
2089.56
2088.41
2087.29
2086.18
2085.09
2084.02
2082.98
2081.97
2080.98
2080.01
2079.07
2078.15
2077.26
2076.4
2075.56
2074.75
2073.96
2073.21
2072.48
2071.78
2071.11
2070.46
2069.85
2069.25
2068.69
2068.16
2067.65
2067.18
2066.74
2066.32
2065.94
2065.59
2065.28
2065
2064.76
2064.55
2064.38
2064.25
2064.16
2064.11
2064.11
2064.15
2064.24
2064.37
2064.55
2064.78
2065.06
2065.39
2065.78
2066.23
2066.73
2067.29
2067.92
2068.61
2069.36
2070.18
2071.06
2072.02
2073.05
2074.16
2075.34
2076.6
2077.95
2079.38
2080.9
2082.52
2084.23
2086.03
2087.94
2089.96
2092.08
2094.32
2096.68
2099.15
2101.75
2104.48
2107.33
2110.32
2113.45
2116.71
2120.13
2123.68
2127.39
2131.26
2135.28
2139.46
2143.8
2148.31
2152.99
2157.85
2162.88
2168.09
2173.49
2179.07
2184.83
2190.79
2196.93
2203.28
2209.83
2216.58
2223.53
2230.66
2237.99
2245.5
2253.19
2261.08
2269.17
2277.45
2285.92
2294.56
2303.37
2312.36
2321.51
2330.81
2340.27
2349.87
2359.61
2369.47
2379.45
2389.54
2399.72
2409.98
2420.32
2430.71
2441.15
2451.62
2462.11
2472.6
2483.08
2493.53
2503.93
2514.27
2524.52
2534.67
2544.69
2554.58
2564.32
2573.88
2583.24
2592.39
2601.29
2609.93
2618.29
2626.35
2634.09
2641.49
2648.53
2655.19
2661.44
2667.28
2672.68
2677.62
2682.09
2686.06
2689.52
2692.45
2694.82
2696.62
2697.82
2698.41
2698.37
2697.68
2696.34
2694.36
2691.82
2688.78
2684.98
2680.36
2674.95
2668.81
2661.95
2654.34
2645.99
2636.89
2627.04
2616.46
2605.13
2593.06
2580.25
2566.71
2552.45
2537.49
2521.83
2505.5
2488.51
2470.9
2452.68
2433.88
2414.54
2394.67
2374.33
2353.56
2332.39
2310.87
2289.03
2266.9
2244.54
2221.97
2199.24
2176.39
2153.46
2130.51
2107.58
2084.71
2061.93
2039.3
2016.84
1994.6
1972.6
1950.87
1929.45
1908.37
1887.67
1867.37
1847.49
1828.07
1809.11
1790.64
1772.67
1755.22
1738.29
1721.89
1706.04
1690.74
1676
1661.82
1648.21
1635.17
1622.7
1610.8
1599.47
1588.69
1578.48
1568.82
1559.7
1551.13
1543.09
1535.56
1528.55
1522.05
1516.03
1510.49
1505.41
1500.78
1496.58
1492.79
1489.4
1486.38
1483.72
1481.4
1479.39
1477.67
1476.22
1475.02
1474.05
1473.28
1472.69
1472.26
1471.96
1471.77
1471.67
1471.64
1471.65
1471.69
1471.74
1471.79
1471.81
1471.8
1471.75
1471.64
1471.47
1471.23
1470.93
1470.56
1470.12
1469.61
1469.02
1468.36
1467.63
1466.85
1466
1465.11
1464.18
1463.22
1462.22
1461.19
1460.14
1459.05
1457.93
1456.79
1455.59
1454.36
1453.11
1451.81
1450.48
1449.09
1447.66
1446.17
1444.6
1442.96
1441.23
1439.41
1437.48
1435.44
1433.3
1431.06
1428.69
1426.22
1423.64
1420.95
1418.15
1415.26
1412.28
1409.22
1406.09
1402.88
1399.62
1396.3
1392.93
1389.5
1386.02
1382.5
1378.95
1375.37
1371.78
1368.21
1364.67
1361.18
1357.73
1354.38
1351.2
1348.15
1345.21
1342.44
1339.82
1337.37
1335.1
1333.01
1331.09
1329.43
1328
1326.81
1325.9
1325.21
1324.79
1324.62
1324.68
1324.96
1325.42
1326.04
1326.88
1327.91
1329.1
1330.42
1331.86
1333.39
1335
1336.65
1338.32
1339.98
1341.62
1343.23
1344.8
1346.32
1347.78
1349.17
1350.48
1351.72
1352.89
1354.03
1355.15
1356.19
1357.13
1358.01
1358.84
1359.6
1360.23
1360.82
1361.41
1361.96
1362.47
1362.9
1363.29
1363.61
1363.87
1364.08
1364.16
1364.19
1364.09
1363.86
1363.54
1363.32
1363.07
1362.68
1362.14
1361.58
1361
1360.4
1359.81
1359.29
1358.81
1358.36
1357.94
1357.59
1357.34
1357.19
1357.13
1357.1
1357.11
1357.16
1357.09
1356.86
1356.49
1355.92
1355.13
1354.15
1353.54
1353.84
1354.4
1354.36
1353.73
1353.21
1353.51
1354.62
1356.15
1357.49
1358.82
1359.91
1360.87
1361.57
1361.86
1361.69
1361.02
1360.07
1358.69
1357.05
1355.1
1352.98
1350.66
1348.25
1345.99
1344.06
1342.57
1341.79
1341.84
1342.96
1344.68
1346.97
1349.8
1353.16
1356.96
1361.19
1365.82
1370.8
1375.99
1381.33
1386.74
1392.14
1397.48
1402.7
1407.75
1412.57
1417.18
1421.62
1425.84
1429.8
1433.56
1437.12
1440.41
1443.49
1446.35
1449.06
1451.62
1454
1456.22
1458.26
1460.11
1461.77
1463.19
1464.37
1465.35
1466.16
1466.87
1467.34
1467.88
1468.3
1468.8
1469.3
1469.86
1470.49
1471.26
1472.14
1473.22
1474.44
1475.86
1477.52
1479.46
1481.61
1483.91
1486.35
1488.82
1491.26
1493.64
1495.95
1498.1
1500.03
1501.77
1503.33
1504.65
1505.65
1506.26
1506.52
1506.4
1505.86
1504.88
1503.45
1501.65
1499.48
1496.84
1493.77
1490.2
1486.41
1482.18
1477.29
1471.53
1465.47
1459.5
1453.94
1449.23
1445.62
1443.4
1442.82
1443.6
1445.66
1448.72
1452.32
1456
1459.37
1462.11
1463.95
1464.78
1464.54
1463.24
1460.94
1457.8
1453.92
1449.49
1444.71
1439.8
1435.11
1430.97
1427.75
1425.62
1424.58
1424.61
1425.62
1427.22
1429.18
1431.21
1432.88
1433.94
1434.18
1433.5
1431.82
1429.1
1425.39
1420.74
1415.29
1409.15
1402.39
1395
1386.84
1377.93
1368.33
1358.22
1347.75
1337.29
1326.85
1316.23
1305.42
1294.3
1282.22
1269.69
1256.64
1243.05
1229.04
1214.69
1200.16
1185.4
1170.54
1155.66
1140.96
1126.58
1112.63
1099.17
1086.28
1074.02
1062.42
1051.45
1040.85
1030.58
1020.92
1011.77
1002.9
994.744
987.41
980.32
973.32
966.721
960.582
954.983
950.08
945.615
940.948
936.295
931.345
926.404
921.54
916.718
912.039
907.579
903.131
898.597
894.109
889.756
885.527
881.413
877.421
873.54
869.733
866.007
862.378
859.005
855.911
853.031
850.551
848.571
846.816
845.123
843.808
842.868
842.081
841.434
841.05
840.885
840.882
841.093
841.548
842.215
843.058
844.053
845.147
846.404
847.848
849.432
851.019
852.535
854.12
855.903
857.945
860.131
862.211
864.163
866
867.619
868.842
869.784
870.516
871.025
871.331
871.421
871.314
871.018
870.518
869.88
869.191
868.481
867.765
867.057
866.307
865.531
864.833
864.28
863.973
863.766
863.654
863.675
863.83
864.177
864.673
865.203
865.786
866.485
867.233
867.969
868.736
869.469
870.151
870.783
871.373
871.874
872.212
872.47
872.654
872.708
872.62
872.435
872.285
872.143
872.007
871.907
871.888
871.979
872.12
872.328
872.632
873.025
873.479
873.997
874.55
875.089
875.625
876.141
876.589
877.012
877.421
877.805
878.129
878.405
878.665
878.907
879.084
879.223
879.308
879.297
879.278
879.282
879.29
879.271
879.187
878.959
878.59
878.384
878.483
878.193
877.327
876.446
876.499
875.739
875.065
874.345
873.395
872.434
871.323
870.152
868.922
867.681
866.53
865.53
864.643
863.858
863.402
863.272
863.391
863.63
864.003
864.463
864.913
865.35
865.715
865.992
866.215
866.337
866.351
866.271
866.077
865.843
865.598
865.276
864.788
864.148
863.402
862.527
861.475
860.18
858.655
856.939
855.139
853.293
851.402
849.436
847.371
845.197
843.02
840.894
838.872
836.956
835.225
833.684
832.325
831.189
830.258
829.489
828.905
828.455
828.061
827.771
827.581
827.438
827.301
827.102
826.872
826.607
826.302
825.931
825.436
824.87
824.18
823.435
822.667
821.868
821.062
820.141
819.078
817.96
816.903
815.908
814.825
813.585
812.196
810.723
809.197
807.561
805.753
803.719
801.335
798.856
796.38
793.931
791.436
788.848
786.208
783.755
781.375
779.071
776.705
774.143
771.351
768.364
765.154
761.658
757.856
754.01
750.19
746.277
742.361
738.395
734.527
730.671
726.466
721.873
717.019
711.946
706.72
701.363
695.933
690.731
685.924
681.384
677.01
672.832
668.724
664.359
659.406
653.765
647.325
640.219
632.507
624.471
616.498
608.4
599.806
590.534
581.053
571.595
562.355
553.867
546.978
540.513
535.16
530.684
527.159
524.452
522.431
520.765
519.287
517.943
516.703
515.512
514.155
512.268
509.814
506.827
503.368
499.628
495.786
491.895
488.1
484.506
481.109
477.952
475.147
472.808
470.909
469.441
468.376
467.562
466.854
466.19
465.505
464.82
464.154
463.44
462.581
461.438
459.999
458.366
456.664
454.953
453.248
451.581
450.147
449.088
448.182
447.381
447.05
446.986
447.029
447.035
446.775
446.333
445.835
445.281
444.649
444.036
443.334
442.505
441.465
440.209
438.911
437.686
436.577
435.788
435.309
435.016
434.704
434.261
433.661
432.852
431.789
430.508
429.094
427.45
425.6
423.802
422.298
420.892
419.348
417.907
416.546
415.413
414.528
413.653
412.701
411.528
410.303
409.366
408.544
407.921
407.566
407.362
407.315
407.58
408.334
409.837
411.472
413.2
415.042
416.621
417.696
418.29
418.611
418.69
418.686
418.694
418.55
418.267
417.829
417.323
416.698
415.92
414.759
413.465
412.125
410.882
409.517
408.236
407.191
406.579
406.596
406.604
406.404
406.028
405.463
404.888
404.318
403.707
403.16
402.629
402.009
401.359
400.726
400.012
399.125
398.11
396.911
395.539
394.088
392.594
391.053
388.887
386.375
384.701
383.568
382.899
380.765
378.589
376.62
375.01
373.642
372.349
370.906
369.504
368.287
367.307
366.465
365.067
362.894
360.532
358.4
356.764
355.41
354.532
353.189
351.188
349.109
347.074
345.682
345.283
344.402
343.509
342.295
340.698
338.67
336.183
334.036
332.823
332.886
333.243
332.579
331.193
329.381
327.068
324.405
321.705
319.748
318.807
319.018
319.859
319.994
318.155
314.911
310.64
306.1
301.778
296.554
289.157
279.253
269.453
264.172
266.121
271.051
275.116
275.54
271.67
263.731
254.834
247.659
243.989
243.515
243.685
240.328
231.211
219.194
207.767
200.023
197.543
197.691
197.74
197.291
197.223
196.334
193.987
190.87
188.041
185.937
184.59
183.36
181.588
179.474
177.316
175.187
173.562
172.465
171.22
169.61
167.941
166.357
164.984
163.964
163.553
163.313
162.798
161.968
161.382
161.205
160.711
159.745
158.6
157.379
156.19
155.266
154.44
153.962
153.53
152.765
152.09
151.538
151.08
150.568
150.089
149.534
148.984
148.222
147.002
145.632
144.443
143.503
142.833
142.183
141.627
140.99
140.299
139.554
138.415
137.227
136.195
135.305
134.395
133.498
132.84
132.312
131.8
131.097
129.983
128.93
127.922
127.224
126.595
125.664
124.696
123.316
121.528
119.822
118.235
116.778
115.174
113.556
112.068
110.671
109.454
108.414
107.267
105.987
104.76
103.633
102.479
101.282
99.9314
98.4275
97.2632
96.3279
95.5263
94.6415
93.612
92.5474
91.1679
89.5227
88.5427
87.4414
86.3433
85.0359
83.4548
82.1162
81.3433
81.0269
80.7876
80.072
79.0914
78.641
78.2289
76.8513
74.7272
72.8132
71.1516
69.5142
68.1705
66.8747
65.591
64.514
64.2066
64.1325
63.8739
63.6661
63.7654
63.6676
62.757
60.6064
59.5222
59.7209
59.4953
58.6247
57.9609
57.8963
57.6271
56.6204
55.3117
54.8133
54.9447
55.3803
55.4595
54.9009
54.1317
53.7296
53.1655
52.0207
50.8921
49.9904
49.3054
49.3717
49.4238
49.1839
48.8036
48.2769
48.205
47.7791
46.7144
46.4779
45.8387
45.0603
44.763
44.7575
44.323
43.2995
42.1995
41.5538
41.1823
40.4898
39.2066
37.8071
37.2003
36.6639
36.1936
35.0688
35.099
35.2343
35.0358
34.7427
34.3919
33.9524
33.7438
33.9087
34.45
34.5964
33.8444
33.0156
33.4397
34.4537
35.1653
35.2837
34.8599
34.9743
35.9868
37.2722
38.1423
38.66
38.3204
37.7903
37.3748
37.8807
38.9534
39.058
37.8808
36.1655
34.5764
33.2867
32.5848
32.6978
32.7982
32.731
32.2737
31.7962
31.6848
31.783
31.667
31.3279
30.914
30.4047
30.0297
29.7045
28.9035
27.6443
26.2865
25.7641
25.8774
25.9863
25.9036
25.6073
25.9349
26.9229
28.2726
27.8944
27.4343
27.2321
27.3497
27.5283
27.4591
26.3223
25.071
23.723
22.496
21.9547
20.7738
20.4424
20.1147
19.3089
19.2199
18.9489
17.6961
16.2677
16.1678
16.5526
16.655
15.9591
15.6384
15.4921
15.1779
14.9844
14.6284
13.5371
12.2781
11.5921
11.098
10.6464
10.2124
9.65274
9.31447
9.80346
10.1598
9.41781
8.73776
8.79014
8.80868
8.58556
8.90283
9.53426
9.03144
10.1711
12.6748
10.5252
10.1642
8.46369
8.4039
8.8275
8.78375
8.15389
8.27481
8.66519
8.91016
8.96333
8.8833
8.82673
9.62344
8.48156
8.9271
6.86636
6.32284
6.12803
8.03925
3481.55
3489.3
3497.06
3504.91
3512.85
3520.91
3529.11
3537.5
3546.12
3555.02
3564.39
3574.59
3586.64
3609.12
3633.54
3649.6
3663.72
3676.91
3689.57
3701.9
3714.03
3726.02
3737.93
3749.78
3761.6
3773.4
3785.2
3796.99
3808.79
3820.59
3832.4
3844.21
3856.03
3867.84
3879.66
3891.47
3903.27
3915.06
3926.83
3938.58
3950.3
3961.99
3973.64
3985.25
3996.81
4008.32
4019.76
4031.14
4042.45
4053.68
4064.82
4075.88
4086.84
4097.69
4108.44
4119.08
4129.59
4139.97
4150.23
4160.34
4170.31
4180.13
4189.79
4199.28
4208.6
4217.73
4226.67
4235.39
4243.9
4252.17
4260.21
4268.01
4275.55
4282.85
4289.89
4296.68
4303.21
4309.48
4315.5
4321.25
4326.75
4331.99
4336.98
4341.71
4346.18
4350.41
4354.38
4358.11
4361.58
4364.81
4367.79
4370.75
4373.84
4376.68
4379.09
4381.18
4383
4384.54
4385.83
4386.86
4387.64
4388.17
4388.46
4388.5
4388.3
4387.87
4387.19
4386.27
4385.1
4383.69
4382.05
4380.16
4378.05
4375.7
4373.13
4370.33
4367.31
4364.06
4360.6
4356.93
4353.04
4348.95
4344.66
4340.17
4335.48
4330.6
4325.53
4320.28
4314.85
4309.24
4303.47
4297.53
4291.44
4285.18
4278.78
4272.23
4265.54
4258.72
4251.76
4244.68
4237.48
4230.16
4222.74
4215.21
4207.58
4199.86
4192.04
4184.15
4176.18
4168.13
4160.02
4151.84
4143.61
4135.33
4126.99
4118.62
4110.21
4101.78
4093.31
4084.83
4076.33
4067.83
4059.33
4050.85
4042.37
4033.88
4025.37
4016.82
4008.23
3999.16
3990.17
3981.36
3972.7
3964.11
3955.6
3947.16
3938.79
3930.48
3922.24
3914.06
3905.95
3897.92
3889.95
3882.05
3874.23
3866.49
3858.82
3851.23
3843.72
3836.3
3828.96
3821.7
3814.53
3807.45
3800.46
3793.56
3786.75
3780.03
3773.41
3766.88
3760.45
3754.12
3747.88
3741.74
3735.71
3729.77
3723.93
3718.19
3712.55
3707.01
3701.57
3696.23
3690.99
3685.85
3680.8
3675.86
3671.01
3666.26
3661.61
3657.05
3652.59
3648.22
3643.95
3639.77
3635.69
3631.7
3627.79
3623.98
3620.26
3616.63
3613.08
3609.63
3606.26
3602.98
3599.78
3596.66
3593.64
3590.69
3587.83
3585.04
3582.34
3579.72
3577.18
3574.72
3572.33
3570.02
3567.79
3565.63
3563.55
3561.54
3559.6
3557.74
3555.95
3554.23
3552.58
3551
3549.49
3548.05
3546.67
3545.37
3544.12
3542.95
3541.84
3540.8
3539.82
3538.91
3538.06
3537.28
3536.56
3535.9
3535.32
3534.78
3534.3
3533.89
3533.55
3533.28
3533.05
3532.88
3532.77
3532.71
3532.71
3532.78
3532.92
3533.12
3533.37
3533.68
3534.06
3534.49
3534.99
3535.56
3536.18
3536.86
3537.6
3538.4
3539.26
3540.18
3541.16
3542.21
3543.33
3544.51
3545.77
3547.1
3548.5
3549.97
3551.51
3553.13
3554.81
3556.58
3558.44
3560.35
3562.35
3564.42
3566.56
3568.78
3571.08
3573.45
3575.91
3578.45
3581.07
3583.77
3586.55
3589.42
3592.37
3595.4
3598.52
3601.73
3605.02
3608.39
3611.85
3615.4
3619.04
3622.76
3626.57
3630.47
3634.45
3638.53
3642.69
3646.93
3651.27
3655.69
3660.2
3664.8
3669.48
3674.25
3679.11
3684.05
3689.08
3694.2
3699.4
3704.68
3710.05
3715.5
3721.04
3726.66
3732.37
3738.15
3744.01
3749.95
3755.97
3762.07
3768.24
3774.5
3780.83
3787.24
3793.72
3800.28
3806.91
3813.62
3820.4
3827.25
3834.17
3841.16
3848.22
3855.34
3862.54
3869.79
3877.12
3884.5
3891.95
3899.46
3907.03
3914.65
3922.33
3930.07
3937.85
3945.69
3953.57
3961.5
3969.47
3977.48
3985.53
3993.61
4001.72
4009.87
4018.04
4026.24
4034.46
4042.69
4050.93
4059.18
4067.42
4075.68
4083.94
4092.21
4100.47
4108.72
4116.95
4125.17
4133.37
4141.55
4149.7
4157.81
4165.9
4173.94
4181.94
4189.89
4197.79
4205.64
4213.43
4221.16
4228.83
4236.42
4243.94
4251.39
4258.75
4266.03
4273.22
4280.31
4287.31
4294.21
4301
4307.68
4314.26
4320.71
4327.05
4333.26
4339.35
4345.31
4351.13
4356.81
4362.35
4367.75
4373
4378.09
4383.03
4387.81
4392.44
4396.89
4401.19
4405.31
4409.26
4413.03
4416.63
4420.06
4423.3
4426.36
4429.24
4431.92
4434.43
4436.74
4438.87
4440.8
4442.55
4444.11
4445.49
4446.72
4447.8
4448.65
4449.39
4450.32
3473.73
3481.43
3489.2
3497.04
3504.99
3513.05
3521.25
3529.64
3538.26
3547.16
3556.53
3566.73
3578.79
3601.26
3625.68
3641.75
3655.87
3669.05
3681.72
3694.05
3706.18
3718.17
3730.08
3741.94
3753.76
3765.56
3777.36
3789.16
3800.96
3812.77
3824.58
3836.4
3848.22
3860.04
3871.86
3883.67
3895.48
3907.27
3919.05
3930.8
3942.52
3954.22
3965.87
3977.48
3989.05
4000.55
4012
4023.38
4034.69
4045.92
4057.07
4068.13
4079.09
4089.95
4100.7
4111.33
4121.85
4132.23
4142.49
4152.61
4162.58
4172.4
4182.06
4191.55
4200.87
4210
4218.94
4227.66
4236.17
4244.45
4252.49
4260.28
4267.83
4275.13
4282.17
4288.96
4295.49
4301.77
4307.78
4313.54
4319.04
4324.28
4329.27
4334
4338.48
4342.71
4346.69
4350.42
4353.91
4357.15
4360.17
4363.13
4366.2
4369.01
4371.41
4373.49
4375.3
4376.84
4378.12
4379.14
4379.92
4380.44
4380.72
4380.75
4380.54
4380.08
4379.39
4378.45
4377.28
4375.86
4374.21
4372.33
4370.21
4367.86
4365.28
4362.48
4359.46
4356.21
4352.75
4349.08
4345.2
4341.1
4336.81
4332.32
4327.63
4322.75
4317.68
4312.43
4307
4301.39
4295.62
4289.68
4283.59
4277.33
4270.93
4264.38
4257.69
4250.86
4243.91
4236.83
4229.63
4222.31
4214.88
4207.35
4199.73
4192
4184.19
4176.3
4168.32
4160.28
4152.16
4143.99
4135.76
4127.47
4119.14
4110.77
4102.36
4093.92
4085.46
4076.98
4068.48
4059.98
4051.48
4042.99
4034.51
4026.03
4017.52
4008.97
4000.38
3991.31
3982.31
3973.51
3964.84
3956.26
3947.75
3939.31
3930.94
3922.63
3914.39
3906.22
3898.11
3890.07
3882.11
3874.22
3866.4
3858.66
3850.99
3843.41
3835.91
3828.49
3821.15
3813.9
3806.74
3799.66
3792.68
3785.79
3778.98
3772.28
3765.66
3759.14
3752.72
3746.4
3740.17
3734.04
3728.01
3722.07
3716.24
3710.51
3704.87
3699.34
3693.91
3688.57
3683.34
3678.2
3673.16
3668.23
3663.39
3658.64
3654
3649.44
3644.99
3640.63
3636.37
3632.19
3628.11
3624.13
3620.23
3616.43
3612.71
3609.09
3605.55
3602.1
3598.74
3595.46
3592.27
3589.16
3586.14
3583.2
3580.34
3577.57
3574.87
3572.26
3569.72
3567.27
3564.89
3562.59
3560.36
3558.21
3556.13
3554.13
3552.2
3550.34
3548.56
3546.85
3545.2
3543.63
3542.13
3540.69
3539.32
3538.02
3536.79
3535.62
3534.52
3533.48
3532.51
3531.6
3530.76
3529.98
3529.26
3528.61
3528.03
3527.5
3527.02
3526.61
3526.28
3526
3525.78
3525.61
3525.5
3525.44
3525.44
3525.51
3525.65
3525.84
3526.09
3526.39
3526.76
3527.19
3527.67
3528.22
3528.83
3529.49
3530.21
3530.98
3531.8
3532.67
3533.61
3534.6
3535.68
3536.83
3538.06
3539.36
3540.74
3542.19
3543.72
3545.33
3547.01
3548.76
3550.62
3552.53
3554.52
3556.58
3558.72
3560.94
3563.23
3565.61
3568.07
3570.6
3573.22
3575.92
3578.7
3581.57
3584.52
3587.55
3590.67
3593.87
3597.16
3600.54
3604
3607.55
3611.18
3614.9
3618.71
3622.61
3626.6
3630.67
3634.83
3639.08
3643.41
3647.83
3652.34
3656.94
3661.62
3666.4
3671.25
3676.2
3681.23
3686.34
3691.54
3696.82
3702.19
3707.64
3713.18
3718.8
3724.51
3730.29
3736.15
3742.09
3748.11
3754.2
3760.38
3766.63
3772.97
3779.37
3785.86
3792.41
3799.05
3805.75
3812.53
3819.38
3826.3
3833.29
3840.35
3847.48
3854.67
3861.93
3869.25
3876.64
3884.09
3891.6
3899.16
3906.79
3914.47
3922.21
3929.99
3937.83
3945.71
3953.64
3961.62
3969.63
3977.68
3985.76
3993.87
4002.02
4010.2
4018.4
4026.62
4034.85
4043.1
4051.35
4059.6
4067.86
4076.13
4084.4
4092.66
4100.91
4109.15
4117.38
4125.58
4133.77
4141.92
4150.05
4158.14
4166.2
4174.21
4182.17
4190.08
4197.94
4205.75
4213.49
4221.17
4228.78
4236.31
4243.77
4251.15
4258.44
4265.64
4272.75
4279.76
4286.67
4293.47
4300.17
4306.75
4313.22
4319.57
4325.79
4331.89
4337.85
4343.68
4349.38
4354.93
4360.33
4365.59
4370.69
4375.64
4380.43
4385.06
4389.53
4393.82
4397.95
4401.91
4405.69
4409.29
4412.72
4415.97
4419.03
4421.91
4424.6
4427.11
4429.42
4431.55
4433.49
4435.24
4436.81
4438.19
4439.43
4440.52
4441.35
4442.09
4442.97
3463.4
3471.07
3478.83
3486.68
3494.62
3502.68
3510.89
3519.27
3527.89
3536.79
3546.17
3556.37
3568.42
3590.89
3615.33
3631.39
3645.51
3658.7
3671.36
3683.7
3695.83
3707.82
3719.73
3731.59
3743.41
3755.21
3767.01
3778.81
3790.61
3802.42
3814.23
3826.05
3837.87
3849.7
3861.52
3873.33
3885.14
3896.93
3908.71
3920.46
3932.19
3943.88
3955.53
3967.15
3978.71
3990.22
4001.67
4013.05
4024.36
4035.59
4046.74
4057.8
4068.76
4079.62
4090.37
4101
4111.52
4121.91
4132.16
4142.28
4152.25
4162.07
4171.73
4181.23
4190.55
4199.68
4208.61
4217.34
4225.85
4234.13
4242.17
4249.96
4257.51
4264.81
4271.85
4278.64
4285.17
4291.44
4297.46
4303.22
4308.72
4313.96
4318.95
4323.68
4328.15
4332.38
4336.36
4340.08
4343.57
4346.8
4349.8
4352.73
4355.82
4358.65
4361.06
4363.15
4364.95
4366.49
4367.77
4368.8
4369.57
4370.09
4370.37
4370.4
4370.19
4369.73
4369.04
4368.1
4366.92
4365.51
4363.86
4361.97
4359.85
4357.5
4354.93
4352.13
4349.1
4345.86
4342.4
4338.72
4334.84
4330.75
4326.45
4321.96
4317.27
4312.39
4307.32
4302.07
4296.64
4291.04
4285.26
4279.33
4273.23
4266.97
4260.57
4254.02
4247.33
4240.51
4233.55
4226.47
4219.27
4211.95
4204.53
4197
4189.37
4181.64
4173.83
4165.94
4157.96
4149.92
4141.8
4133.63
4125.4
4117.11
4108.78
4100.41
4092
4083.56
4075.1
4066.62
4058.12
4049.62
4041.12
4032.63
4024.16
4015.67
4007.17
3998.61
3990.02
3980.95
3971.96
3963.15
3954.49
3945.91
3937.4
3928.96
3920.59
3912.28
3904.04
3895.86
3887.76
3879.72
3871.76
3863.87
3856.05
3848.31
3840.64
3833.06
3825.56
3818.14
3810.8
3803.55
3796.39
3789.31
3782.33
3775.43
3768.63
3761.92
3755.3
3748.78
3742.36
3736.03
3729.79
3723.66
3717.63
3711.69
3705.85
3700.11
3694.48
3688.94
3683.5
3678.16
3672.92
3667.78
3662.74
3657.8
3652.95
3648.2
3643.55
3638.99
3634.53
3630.17
3625.89
3621.72
3617.63
3613.64
3609.73
3605.92
3602.2
3598.57
3595.02
3591.56
3588.19
3584.91
3581.71
3578.59
3575.56
3572.61
3569.75
3566.96
3564.26
3561.64
3559.09
3556.63
3554.24
3551.93
3549.69
3547.53
3545.44
3543.43
3541.49
3539.62
3537.83
3536.1
3534.45
3532.86
3531.35
3529.9
3528.52
3527.21
3525.97
3524.79
3523.68
3522.63
3521.64
3520.73
3519.87
3519.08
3518.36
3517.69
3517.1
3516.56
3516.08
3515.66
3515.32
3515.04
3514.81
3514.63
3514.52
3514.45
3514.45
3514.51
3514.65
3514.84
3515.09
3515.4
3515.78
3516.21
3516.71
3517.28
3517.9
3518.59
3519.33
3520.14
3521
3521.93