/*--------------------------------*- C++ -*----------------------------------*\
| =========                 |                                                 |
| \\      /  F ield         | foam-extend: Open Source CFD                    |
|  \\    /   O peration     | Version:     3.1                                |
|   \\  /    A nd           | Web:         http://www.extend-project.de       |
|    \\/     M anipulation  |                                                 |
\*---------------------------------------------------------------------------*/
FoamFile
{
    version     2.0;
    format      ascii;
    class       volScalarField;
    location    "120";
    object      p_rgh;
}
// * * * * * * * * * * * * * * * * * * * * * * * * * * * * * * * * * * * * * //

dimensions      [1 -1 -2 0 0 0 0];

internalField   nonuniform List<scalar> 
212248
(
-431.659
-423.848
-416.087
-408.243
-400.302
-392.242
-384.037
-375.642
-367.025
-358.132
-348.761
-338.558
-326.507
-304.033
-279.615
-263.549
-249.433
-236.244
-223.582
-211.246
-199.119
-187.126
-175.22
-163.368
-151.549
-139.746
-127.951
-116.157
-104.359
-92.5567
-80.7489
-68.9363
-57.1204
-45.3036
-33.4886
-21.6788
-9.87788
1.90999
13.6805
25.4291
37.1509
48.8409
60.4935
72.1029
83.6635
95.1695
106.615
117.995
129.303
140.532
151.678
162.733
173.692
184.549
195.297
205.931
216.444
226.83
237.084
247.199
257.169
266.988
276.647
286.14
295.457
304.588
313.523
322.248
330.754
339.029
347.067
354.862
362.409
369.705
376.748
383.535
390.066
396.339
402.354
408.111
413.61
418.852
423.838
428.568
433.045
437.27
441.246
444.974
448.457
451.696
454.687
457.65
460.737
463.56
465.957
468.045
469.851
471.391
472.673
473.702
474.481
475.012
475.298
475.34
475.143
474.708
474.029
473.105
471.939
470.531
468.886
467.004
464.889
462.543
459.969
457.168
454.145
450.902
447.442
443.769
439.885
435.794
431.5
427.007
422.318
417.438
412.37
407.118
401.689
396.086
390.313
384.375
378.278
372.025
365.621
359.072
352.383
345.558
338.602
331.521
324.32
317.005
309.579
302.049
294.42
286.697
278.886
270.991
263.018
254.973
246.86
238.685
230.452
222.169
213.838
205.467
197.059
188.621
180.158
171.675
163.18
154.678
146.179
137.692
129.213
120.729
112.219
103.67
95.0791
86.0082
77.0131
68.2106
59.5438
50.9619
42.4537
34.0137
25.64
17.3318
9.08969
0.914428
-7.19277
-15.2305
-23.1972
-31.0913
-38.9111
-46.655
-54.3212
-61.9083
-69.4146
-76.8383
-84.1779
-91.4319
-98.599
-105.678
-112.667
-119.565
-126.371
-133.083
-139.702
-146.225
-152.653
-158.983
-165.216
-171.35
-177.386
-183.322
-189.159
-194.895
-200.532
-206.068
-211.505
-216.842
-222.08
-227.219
-232.259
-237.2
-242.044
-246.79
-251.439
-255.993
-260.45
-264.813
-269.081
-273.256
-277.338
-281.328
-285.227
-289.034
-292.752
-296.381
-299.922
-303.374
-306.74
-310.02
-313.215
-316.324
-319.35
-322.293
-325.153
-327.932
-330.63
-333.247
-335.786
-338.246
-340.628
-342.934
-345.163
-347.317
-349.397
-351.402
-353.335
-355.195
-356.983
-358.7
-360.346
-361.923
-363.43
-364.869
-366.24
-367.544
-368.782
-369.953
-371.059
-372.1
-373.076
-373.986
-374.832
-375.614
-376.334
-376.989
-377.572
-378.102
-378.589
-378.997
-379.331
-379.607
-379.831
-380.006
-380.115
-380.175
-380.18
-380.109
-379.968
-379.776
-379.527
-379.219
-378.851
-378.419
-377.926
-377.372
-376.759
-376.088
-375.359
-374.575
-373.734
-372.837
-371.877
-370.85
-369.751
-368.579
-367.334
-366.014
-364.623
-363.16
-361.624
-360.012
-358.33
-356.562
-354.711
-352.797
-350.802
-348.738
-346.596
-344.377
-342.079
-339.702
-337.245
-334.707
-332.089
-329.388
-326.604
-323.738
-320.788
-317.754
-314.635
-311.431
-308.141
-304.766
-301.305
-297.757
-294.122
-290.4
-286.59
-282.691
-278.704
-274.632
-270.472
-266.225
-261.89
-257.468
-252.958
-248.361
-243.676
-238.905
-234.047
-229.103
-224.073
-218.957
-213.757
-208.473
-203.104
-197.651
-192.113
-186.49
-180.786
-175.003
-169.142
-163.201
-157.181
-151.082
-144.905
-138.649
-132.317
-125.908
-119.423
-112.863
-106.229
-99.5212
-92.7414
-85.8901
-78.9681
-71.9761
-64.9153
-57.7869
-50.5916
-43.3309
-36.0057
-28.6175
-21.1678
-13.6573
-6.08883
1.53722
9.21998
16.957
24.7454
32.5839
40.4696
48.4006
56.3743
64.3877
72.4387
80.5229
88.638
96.7896
104.97
113.171
121.389
129.623
137.87
146.122
154.37
162.632
170.902
179.171
187.434
195.688
203.929
212.155
220.36
228.542
236.697
244.821
252.91
260.961
268.968
276.927
284.835
292.689
300.488
308.226
315.899
323.503
331.033
338.485
345.856
353.141
360.336
367.437
374.441
381.344
388.143
394.833
401.412
407.874
414.216
420.435
426.525
432.485
438.31
443.996
449.541
454.941
460.192
465.291
470.234
475.018
479.642
484.101
488.394
492.516
496.467
500.244
503.844
507.267
510.509
513.57
516.444
519.13
521.631
523.944
526.068
528.004
529.749
531.31
532.691
533.92
535.004
535.843
536.577
537.565
538.296
537.184
536.238
535.387
534.469
533.417
532.195
530.792
529.166
527.342
525.352
523.175
520.761
518.136
515.317
512.298
509.077
505.659
502.044
498.234
494.232
490.039
485.653
481.077
476.312
471.361
466.223
460.9
455.392
449.701
443.828
437.777
431.555
425.171
418.636
411.96
405.144
398.19
391.096
383.864
376.494
368.993
361.364
353.612
345.74
337.751
329.653
321.45
313.144
304.741
296.246
287.663
278.998
270.254
261.437
252.553
243.604
234.597
225.535
216.425
207.271
198.078
188.85
179.595
170.315
161.016
151.702
142.378
133.049
123.718
114.391
105.072
95.7648
86.4728
77.2
67.9507
58.7334
49.5525
40.4106
31.3103
22.2533
13.2502
4.30361
-4.58413
-13.4099
-22.1693
-30.8611
-39.4818
-48.0282
-56.4976
-64.8864
-73.1916
-81.4104
-89.5398
-97.5787
-105.524
-113.373
-121.124
-128.774
-136.321
-143.765
-151.102
-158.332
-165.453
-172.464
-179.362
-186.148
-192.82
-199.376
-205.817
-212.141
-218.348
-224.437
-230.407
-236.26
-241.995
-247.611
-253.107
-258.487
-263.749
-268.894
-273.92
-278.829
-283.622
-288.301
-292.864
-297.311
-301.645
-305.867
-309.98
-313.98
-317.868
-321.649
-325.325
-328.895
-332.357
-335.714
-338.969
-342.127
-345.184
-348.139
-350.995
-353.757
-356.426
-359.001
-361.48
-363.867
-366.165
-368.377
-370.5
-372.533
-374.479
-376.343
-378.124
-379.821
-381.433
-382.962
-384.413
-385.784
-387.074
-388.285
-389.417
-390.472
-391.451
-392.352
-393.177
-393.929
-394.608
-395.212
-395.743
-396.203
-396.593
-396.912
-397.161
-397.342
-397.456
-397.504
-397.486
-397.403
-397.257
-397.048
-396.777
-396.447
-396.059
-395.611
-395.086
-394.5
-393.85
-393.136
-392.369
-391.549
-390.677
-389.751
-388.769
-387.737
-386.656
-385.524
-384.341
-383.109
-381.828
-380.499
-379.122
-377.697
-376.227
-374.709
-373.145
-371.535
-369.88
-368.183
-366.441
-364.656
-362.829
-360.96
-359.047
-357.09
-355.09
-353.046
-350.958
-348.826
-346.648
-344.427
-342.16
-339.848
-337.491
-335.089
-332.641
-330.148
-327.607
-325.02
-322.385
-319.703
-316.972
-314.192
-311.363
-308.483
-305.551
-302.568
-299.531
-296.442
-293.298
-290.099
-286.845
-283.534
-280.165
-276.738
-273.251
-269.703
-266.093
-262.419
-258.681
-254.878
-251.008
-247.07
-243.062
-238.984
-234.835
-230.612
-226.316
-221.943
-217.494
-212.968
-208.364
-203.68
-198.914
-194.067
-189.138
-184.126
-179.029
-173.846
-168.578
-163.222
-157.779
-152.246
-146.624
-140.912
-135.108
-129.213
-123.224
-117.141
-110.964
-104.692
-98.3237
-91.859
-85.297
-78.6372
-71.8789
-65.0216
-58.0653
-51.01
-43.8554
-36.6017
-29.2488
-21.7969
-14.2462
-6.5982
1.1462
8.98592
16.9644
24.9981
33.1284
41.3526
49.6688
58.0647
66.5566
75.1387
83.805
92.5575
101.386
110.292
119.272
128.322
137.44
146.619
155.861
165.164
174.524
183.937
193.397
202.9
212.444
222.021
231.628
241.259
250.91
260.576
270.251
279.931
289.605
299.27
308.918
318.544
328.142
337.704
347.223
356.693
366.106
375.455
384.73
393.926
403.032
412.043
420.949
429.743
438.417
446.963
455.374
463.642
471.758
479.715
487.504
495.116
502.542
509.776
516.809
523.635
530.245
536.631
542.785
548.699
554.367
559.782
564.937
569.825
574.44
578.777
582.829
586.591
590.058
593.225
596.086
598.638
600.876
602.797
604.397
605.669
606.61
607.218
607.489
607.422
607.013
606.259
605.156
603.73
602.063
600.113
597.758
595.05
591.996
588.609
584.882
580.822
576.437
571.716
566.67
561.296
555.596
549.573
543.235
536.586
529.627
522.359
514.792
506.929
498.777
490.342
481.631
472.649
463.398
453.883
444.112
434.093
423.832
413.336
402.613
391.674
380.53
369.201
357.707
346.067
334.292
322.389
310.36
298.213
285.959
273.614
261.185
248.684
236.123
223.514
210.878
198.226
185.571
172.922
160.292
147.692
135.132
122.625
110.178
97.8006
85.5162
73.3304
61.2513
49.288
37.4499
25.7459
14.1846
2.77342
-8.47921
-19.5673
-30.4831
-41.2175
-51.769
-62.131
-72.2963
-82.2615
-92.0225
-101.575
-110.917
-120.047
-128.961
-137.656
-146.132
-154.387
-162.422
-170.235
-177.826
-185.196
-192.346
-199.274
-205.983
-212.475
-218.751
-224.814
-230.665
-236.308
-241.747
-246.983
-252.019
-256.86
-261.508
-265.967
-270.24
-274.333
-278.25
-281.994
-285.568
-288.978
-292.226
-295.316
-298.254
-301.043
-303.684
-306.184
-308.546
-310.775
-312.873
-314.846
-316.698
-318.43
-320.05
-321.564
-322.97
-324.275
-325.484
-326.603
-327.632
-328.577
-329.444
-330.234
-330.951
-331.6
-332.185
-332.709
-333.164
-333.551
-333.886
-334.17
-334.404
-334.595
-334.74
-334.843
-334.906
-334.929
-334.914
-334.863
-334.778
-334.66
-334.51
-334.329
-334.118
-333.879
-333.614
-333.323
-333.007
-332.668
-332.305
-331.919
-331.512
-331.084
-330.636
-330.167
-329.678
-329.17
-328.643
-328.097
-327.533
-326.95
-326.349
-325.73
-325.094
-324.441
-323.769
-323.08
-322.376
-321.656
-320.919
-320.166
-319.399
-318.615
-317.817
-317.004
-316.177
-315.336
-314.48
-313.611
-312.728
-311.83
-310.918
-309.992
-309.052
-308.097
-307.127
-306.143
-305.145
-304.131
-303.102
-302.058
-300.999
-299.924
-298.833
-297.727
-296.605
-295.464
-294.305
-293.129
-291.934
-290.721
-289.488
-288.238
-286.968
-285.678
-284.366
-283.033
-281.682
-280.309
-278.911
-277.489
-276.044
-274.574
-273.081
-271.562
-270.018
-268.449
-266.853
-265.231
-263.583
-261.908
-260.205
-258.473
-256.713
-254.929
-253.119
-251.281
-249.417
-247.524
-245.602
-243.65
-241.667
-239.653
-237.609
-235.534
-233.426
-231.282
-229.103
-226.888
-224.636
-222.346
-220.016
-217.645
-215.231
-212.773
-210.27
-207.721
-205.125
-202.479
-199.782
-197.032
-194.229
-191.369
-188.453
-185.478
-182.442
-179.344
-176.182
-172.953
-169.657
-166.29
-162.851
-159.338
-155.747
-152.077
-148.324
-144.486
-140.559
-136.541
-132.429
-128.218
-123.905
-119.487
-114.96
-110.321
-105.565
-100.691
-95.6932
-90.5693
-85.3156
-79.9288
-74.4052
-68.7412
-62.9338
-56.9802
-50.8765
-44.6192
-38.2052
-31.6316
-24.8948
-17.991
-10.9175
-3.67107
3.75123
11.3524
19.1355
27.1032
35.2578
43.6013
52.1331
60.8696
69.8044
78.9398
88.2687
97.788
107.497
117.394
127.468
137.738
148.21
158.873
169.718
180.737
191.933
203.297
214.821
226.505
238.34
250.318
262.431
274.67
287.024
299.485
312.039
324.675
337.381
350.146
362.957
375.8
388.661
401.524
414.372
427.189
439.957
452.66
465.277
477.792
490.185
502.439
514.538
526.463
538.193
549.701
560.967
571.97
582.689
593.108
603.209
612.968
622.365
631.381
639.996
648.19
655.947
663.248
670.071
676.399
682.212
687.491
692.218
696.37
699.924
702.866
705.174
706.836
707.843
708.213
708.031
707.337
705.887
703.608
700.548
696.757
692.239
686.974
680.97
674.21
666.708
658.469
649.484
639.755
629.288
618.091
606.172
593.543
580.224
566.233
551.586
536.309
520.428
503.968
486.956
469.424
451.419
432.983
414.151
394.959
375.449
355.659
335.626
315.385
294.984
274.465
253.872
233.25
212.645
192.098
171.652
151.346
131.215
111.294
91.6174
72.2146
53.1171
34.3635
15.984
-1.99288
-19.5496
-36.6524
-53.2841
-69.435
-85.0849
-100.222
-114.837
-128.917
-142.45
-155.429
-167.852
-179.715
-191.009
-201.734
-211.891
-221.478
-230.501
-238.962
-246.865
-254.216
-261.019
-267.283
-273.017
-278.23
-282.93
-287.129
-290.84
-294.075
-296.848
-299.174
-301.069
-302.551
-303.638
-304.351
-304.708
-304.729
-304.437
-303.852
-302.998
-301.897
-300.57
-299.04
-297.331
-295.468
-293.469
-291.36
-289.164
-286.901
-284.591
-282.255
-279.91
-277.572
-275.255
-272.971
-270.732
-268.548
-266.428
-264.377
-262.391
-260.468
-258.615
-256.84
-255.144
-253.517
-251.954
-250.454
-249.015
-247.621
-246.264
-244.944
-243.656
-242.4
-241.171
-239.976
-238.813
-237.679
-236.594
-235.544
-234.521
-233.535
-232.592
-231.697
-230.852
-230.07
-229.358
-228.726
-228.181
-227.727
-227.382
-227.147
-227.013
-226.987
-227.079
-227.284
-227.593
-228.01
-228.536
-229.158
-229.866
-230.658
-231.528
-232.468
-233.462
-234.51
-235.616
-236.783
-238.005
-239.261
-240.542
-241.858
-243.188
-244.5
-245.779
-247.004
-248.191
-249.284
-250.203
-250.999
-251.675
-252.193
-252.551
-252.741
-252.756
-252.592
-252.23
-251.623
-250.796
-249.754
-248.436
-246.871
-245.038
-242.965
-240.656
-238.12
-235.415
-232.538
-229.455
-226.175
-222.738
-219.168
-215.481
-211.704
-207.857
-203.958
-200.043
-196.139
-192.252
-188.397
-184.582
-180.821
-177.115
-173.489
-169.945
-166.471
-163.059
-159.683
-156.323
-153.043
-149.867
-146.753
-143.683
-140.691
-137.822
-134.994
-132.175
-129.389
-126.65
-123.978
-121.363
-118.809
-116.318
-113.878
-111.569
-109.321
-107.179
-105.073
-102.982
-100.792
-98.733
-97.0172
-95.6686
-94.0964
-92.4638
-90.8411
-89.2029
-87.4902
-85.74
-83.9772
-82.1743
-80.3029
-78.3284
-76.2576
-74.1041
-71.9144
-69.6842
-67.4197
-65.2696
-63.2888
-61.4465
-59.799
-58.3784
-57.1532
-55.5543
-53.043
-50.2721
-48.0985
-46.4897
-44.7494
-42.223
-38.974
-35.2542
-31.7067
-28.1649
-24.8644
-21.6975
-18.796
-16.2965
-14.2654
-12.7285
-11.4603
-10.6027
-10.019
-9.77121
-9.70791
-9.82571
-10.0251
-10.066
-9.77749
-9.06786
-7.64461
-5.404
-2.10748
1.78153
6.2496
11.2767
16.8246
22.8231
29.2539
36.0737
43.2483
50.6286
58.1636
65.7676
73.3665
80.8939
88.3063
95.5462
102.553
109.362
115.987
122.396
128.542
134.497
140.238
145.72
150.98
156.031
160.924
165.668
170.257
174.69
178.926
182.965
186.785
190.358
193.731
196.939
199.982
202.875
205.517
208.197
210.739
213.402
216.097
218.895
221.797
224.809
227.868
231.08
234.379
237.87
241.689
245.804
250.125
254.59
259.204
263.842
268.454
273.028
277.687
282.191
286.144
289.86
293.548
297.074
300.28
303.058
305.428
307.434
309.058
310.246
310.984
311.345
311.325
310.862
310.066
308.971
307.574
305.607
303.213
299.861
295.638
291.078
287.393
284.872
283.477
283.419
284.983
287.9
292.124
297.344
303.121
308.988
314.566
319.424
323.322
326.23
328.119
328.971
328.819
327.823
326.094
323.804
321.167
318.41
315.87
313.871
312.8
312.85
314.058
316.175
319.267
322.985
327.096
331.275
335.104
338.309
340.696
342.124
342.566
341.986
340.417
337.911
334.645
330.688
326.049
320.732
314.698
307.919
300.465
292.507
284.175
275.85
267.628
259.073
250.372
241.587
231.848
221.194
210.06
198.598
186.736
174.515
162.099
149.46
136.734
123.995
111.433
99.1924
87.3648
76.0263
65.2138
55.0725
45.5928
36.9565
28.8989
21.0943
13.7722
6.7078
-0.388073
-6.30423
-7.38564
-7.65084
-12.8464
-22.4145
-29.8132
-34.1742
-37.0715
-39.4417
-41.7399
-43.5175
-45.4417
-47.7158
-50.367
-53.6624
-57.3739
-60.3368
-62.7982
-65.0796
-66.5969
-67.6866
-68.7974
-70.2243
-71.9367
-73.6715
-75.2605
-76.5536
-77.5447
-78.1895
-78.6596
-79.2119
-79.5699
-79.4749
-79.0913
-78.3518
-77.3156
-76.1362
-75.0546
-73.9391
-72.3492
-68.6892
-62.6943
-56.5278
-51.3206
-47.7207
-45.2093
-48.345
-52.7148
-53.2779
-50.711
-47.224
-43.4248
-39.3461
-35.2855
-31.3274
-27.5839
-23.8542
-19.7594
-14.9979
-10.4091
-6.62366
-3.58951
-0.712296
2.06805
5.30728
7.95567
10.1527
11.7417
12.8269
13.8511
14.9998
16.3062
17.6627
19.0451
20.7881
27.8618
39.7667
47.506
49.5521
42.0086
33.1125
32.0066
33.6877
35.8837
38.3051
40.876
43.4823
46.1527
48.9686
51.8455
54.707
57.5967
60.4528
63.2349
65.9098
68.4998
71.2832
75.2653
78.9512
81.4189
82.918
83.5621
84.4241
85.8851
87.712
89.637
91.6318
93.7245
95.9002
98.1053
100.363
102.723
105.176
107.689
110.569
114.873
119.161
121.929
122.793
124.746
127.556
130.397
133.026
135.296
137.195
138.869
140.541
142.381
144.908
152.487
164.182
176
181.322
179.801
170.58
163.584
161.133
162.409
164.101
166.418
169.245
171.005
171.482
177.721
192.053
197.106
192.444
189.473
190.562
194.571
198.413
200.489
201.19
196.811
190.596
187.288
187.269
188.694
191.571
195.307
199.038
202.597
205.559
207.926
206.338
207.809
209.937
212.302
214.362
217.121
225.471
240.4
245.425
240.306
233.255
235.079
241.014
243.208
240.13
235.338
236.523
243.445
257.628
265.413
262.168
249.4
237.054
233.206
232.893
232.982
233.014
232.974
233.227
235.229
236.36
236.55
235.838
236.165
237.649
239.752
243.865
256.361
265.082
265.281
260.224
253.788
251.23
252.915
255.01
257.316
258.995
260.301
261.582
262.969
264.215
265.399
266.628
267.786
270.534
279.391
289.419
290.134
284.665
276.612
273.83
274.528
275.219
276.134
278.282
284.78
284.29
280.26
276.119
274.597
274.172
273.965
278.156
297.848
297.315
284.846
273.278
272.226
274.922
290.141
291.415
280.838
268.221
264.341
262.411
260.718
260.622
271.418
285.901
278.948
257.895
249.369
246.468
243.5
240.308
237.7
242.899
253.549
255.429
242.702
225.509
219.412
217.328
217.346
216.671
212.917
206.746
201.652
196.445
194.127
208.254
216.427
200.029
171.951
159.36
151.186
143.605
136.369
132.495
136.199
137.991
135.961
127.7
115.669
113.066
112.939
113.228
114.375
121.082
129.018
129.108
120.915
116.527
115.511
114.564
115.437
118.528
119.333
117.785
115.132
109.718
104.473
101.713
100.769
100.656
101.182
101.871
102.765
103.686
104.789
107.396
116.637
123.342
122.976
115.162
112.164
112.402
114.586
119.328
123.326
121.784
116.156
115.409
115.572
116.327
119.559
128.805
135.11
135.839
128.546
126.118
127.477
129.602
131.843
133.62
134.792
135.246
136.246
140.268
145.772
149.388
150.796
145.215
143.985
148.763
154.418
149.185
147.31
148.712
151.359
152.134
151.887
152.394
153.115
153.918
159.583
167.827
168.308
158.889
154.901
155.091
156.914
158.657
159.048
158.773
159.52
160.393
163.627
167.897
169.997
170.563
170.129
170.975
171.637
173.505
175.962
179.175
183.555
194.373
204.237
208.843
209.112
206.105
204.09
203.444
204.193
205.975
207.738
209.448
211.199
212.98
214.542
215.701
216.142
217.201
220.261
226.378
231.775
232.884
229.436
225.367
223.702
224.699
226.388
228.165
229.757
231.51
233.99
237.102
236.766
236.333
237.41
238.625
239.978
241.423
242.845
244.586
249.673
253.7
253.769
250.927
246.88
245.365
244.9
249.071
265.231
251.098
247.922
247.051
246.567
246.835
247.678
248.284
250.167
252.909
255.752
257.799
258.271
254.248
252.166
251.811
254.866
261.511
263.399
257.537
254.095
253.814
253.448
253.277
253.977
256.959
260.242
263.563
265.081
263.142
259.299
257.759
257.458
258.074
259.971
262.225
263.904
268.499
271.624
269.886
265.948
264.211
264.096
265.456
268.215
270.911
272.261
273.937
271.252
266.601
263.513
261.041
257.84
252.944
245.015
236.521
232.994
237.134
244.831
251.063
253.106
250.029
243.726
236.729
231.767
230.354
231.837
233.766
231.933
224.439
214.273
204.804
199.027
198.101
200.01
202.128
203.614
205.432
206.398
205.888
204.627
203.679
203.51
204.062
204.715
204.82
204.493
203.177
201.212
201.39
204.264
205.635
205.945
206.033
205.384
204.276
203.732
204.745
207.379
210.842
212.869
214.239
215.962
217.348
217.891
216.519
215.613
216.245
219.915
222.316
223.78
223.179
219.376
218.881
222.913
229.008
231.145
232.571
233.936
235.364
236.549
235.513
230.575
228.197
230.008
237.708
241.285
242.656
243.846
244.983
245.851
243.719
241.928
242.497
245.814
247.461
245.417
244.757
245.895
247.279
248.242
251.517
256.762
258.784
258.454
255.643
255.504
260.152
263.317
263.45
261.754
260.756
261.12
263.572
264.662
265.009
265.407
266.213
267.187
265.803
260.769
257.547
258.183
266.031
270.653
271.623
272.04
272.731
272.634
270.463
268.718
268.949
272.386
276.785
277.852
278.801
278.997
270.783
257.777
257.806
273.374
281.244
283.653
282.011
278.764
278.399
281.959
288.386
290.276
289.793
285.706
276.832
262.322
268.411
287.809
292.062
292.313
287.218
279.441
277.892
296.671
301.416
303.355
304.205
303.54
302.809
297.692
287.885
283.779
300.255
311.076
313.306
313.5
313.652
313.938
305.642
290.586
295.382
318.805
322.54
322.481
319.929
317.07
317.055
321.57
325.468
327.932
330.032
332.343
334.926
336.987
333.515
313.762
301.61
329.362
341.826
344.311
346.019
346.67
336.49
322.906
330.066
349.533
352.418
344.571
316.799
300.958
343.597
356.821
358.195
352.31
323.558
295.869
310.682
358.214
366.956
367.941
369.097
371.063
373.953
375.229
351.867
313.413
337.272
380.597
384.153
385.048
384.56
383.496
382.615
383.419
386.464
391.178
389.294
370.606
372.296
400.759
408.886
390.063
373.759
373.109
394.461
413.165
416.898
418.296
417.445
415.892
414.813
415.398
417.012
419.332
421.05
422.45
423.981
425.578
427.506
429.974
432.1
433.226
433.737
434.916
435.454
435.092
435.094
435.928
437.56
439.684
442.648
444.351
446.153
448.054
450.534
452.608
451.303
447.695
444.872
443.937
443.493
442.661
441.307
440.949
439.045
437.631
438.86
438.048
417.098
391.137
377.856
376.464
387.695
401.891
406.548
398.64
387.37
376.999
367.844
354.17
331.782
310.15
305.133
324.176
337.894
341.317
345.448
350.725
340.762
314.981
295.31
277.832
267.734
261.902
257.439
254.22
239.748
217.569
203.213
201.085
147.898
105.839
101.128
103.88
97.4656
106.654
42.6309
54.7433
54.1793
69.0614
72.1922
66.7661
80.4409
160.351
93.3805
30.9795
29.6524
23.2069
21.3322
-431.605
-423.862
-416.099
-408.254
-400.312
-392.253
-384.048
-375.657
-367.041
-358.144
-348.771
-338.568
-326.516
-304.043
-279.624
-263.558
-249.442
-236.254
-223.593
-211.257
-199.13
-187.138
-175.232
-163.381
-151.561
-139.759
-127.964
-116.169
-104.372
-92.5697
-80.7619
-68.9493
-57.1334
-45.3165
-33.5014
-21.6915
-9.89057
1.89737
13.6679
25.4165
37.1382
48.8282
60.4806
72.0899
83.6503
95.1563
106.602
117.982
129.289
140.518
151.664
162.719
173.678
184.535
195.283
205.917
216.429
226.815
237.069
247.184
257.154
266.973
276.632
286.125
295.442
304.573
313.508
322.233
330.739
339.014
347.052
354.847
362.394
369.69
376.732
383.52
390.05
396.323
402.338
408.094
413.593
418.835
423.82
428.549
433.025
437.248
441.221
444.946
448.423
451.654
454.631
457.592
460.682
463.523
465.93
468.025
469.836
471.38
472.666
473.697
474.478
475.011
475.297
475.34
475.144
474.709
474.031
473.107
471.94
470.533
468.887
467.005
464.89
462.544
459.969
457.169
454.146
450.903
447.443
443.769
439.885
435.794
431.5
427.007
422.318
417.438
412.37
407.118
401.689
396.085
390.312
384.375
378.277
372.024
365.621
359.072
352.382
345.557
338.601
331.52
324.319
317.003
309.578
302.048
294.419
286.696
278.884
270.989
263.016
254.971
246.857
238.682
230.45
222.166
213.835
205.463
197.055
188.617
180.154
171.671
163.175
154.674
146.174
137.686
129.208
120.724
112.215
103.664
95.0725
86.0005
77.0055
68.2027
59.5356
50.9534
42.4448
34.0045
25.6304
17.3218
9.07916
0.903346
-7.20449
-15.243
-23.2105
-31.1055
-38.9264
-46.6715
-54.3391
-61.9277
-69.4356
-76.8611
-84.2028
-91.459
-98.6284
-105.71
-112.701
-119.602
-126.411
-133.127
-139.749
-146.276
-152.707
-159.041
-165.277
-171.415
-177.453
-183.393
-189.232
-194.971
-200.611
-206.151
-211.591
-216.931
-222.172
-227.314
-232.357
-237.302
-242.149
-246.898
-251.551
-256.108
-260.569
-264.935
-269.207
-273.385
-277.47
-281.464
-285.366
-289.177
-292.898
-296.531
-300.075
-303.531
-306.9
-310.184
-313.381
-316.495
-319.524
-322.47
-325.334
-328.116
-330.817
-333.439
-335.981
-338.444
-340.83
-343.139
-345.371
-347.529
-349.612
-351.621
-353.556
-355.42
-357.211
-358.931
-360.581
-362.161
-363.672
-365.114
-366.488
-367.794
-369.035
-370.209
-371.316
-372.359
-373.337
-374.249
-375.097
-375.881
-376.602
-377.258
-377.844
-378.376
-378.86
-379.27
-379.606
-379.881
-380.106
-380.282
-380.39
-380.447
-380.451
-380.378
-380.236
-380.041
-379.788
-379.476
-379.103
-378.666
-378.166
-377.604
-376.982
-376.299
-375.557
-374.758
-373.9
-372.982
-372
-370.951
-369.834
-368.647
-367.389
-366.059
-364.659
-363.19
-361.648
-360.031
-358.345
-356.581
-354.72
-352.805
-350.809
-348.744
-346.601
-344.381
-342.082
-339.705
-337.247
-334.709
-332.09
-329.389
-326.606
-323.739
-320.789
-317.755
-314.636
-311.432
-308.143
-304.768
-301.306
-297.758
-294.124
-290.401
-286.591
-282.693
-278.706
-274.634
-270.474
-266.227
-261.892
-257.47
-252.96
-248.363
-243.679
-238.908
-234.051
-229.106
-224.076
-218.961
-213.761
-208.477
-203.109
-197.656
-192.119
-186.497
-180.793
-175.011
-169.151
-163.211
-157.191
-151.093
-144.917
-138.662
-132.331
-125.923
-119.439
-112.881
-106.248
-99.5421
-92.7639
-85.9143
-78.994
-72.0035
-64.9442
-57.8175
-50.6239
-43.365
-36.0417
-28.6554
-21.2078
-13.6995
-6.13316
1.49061
9.17095
16.9055
24.6912
32.527
40.41
48.338
56.3088
64.319
72.3666
80.4474
88.5588
96.707
104.884
113.081
121.296
129.526
137.769
146.017
154.261
162.518
170.783
179.048
187.307
195.555
203.791
212.012
220.212
228.388
236.537
244.655
252.737
260.781
268.781
276.733
284.633
292.48
300.271
308.001
315.666
323.262
330.784
338.228
345.591
352.869
360.057
367.152
374.15
381.046
387.839
394.524
401.097
407.554
413.891
420.105
426.19
432.145
437.966
443.649
449.191
454.587
459.836
464.932
469.872
474.655
479.276
483.735
488.026
492.148
496.098
499.874
503.475
506.897
510.14
513.201
516.077
518.765
521.267
523.582
525.707
527.645
529.392
530.954
532.335
533.562
534.645
535.486
536.226
537.156
-431.576
-423.874
-416.113
-408.267
-400.323
-392.262
-384.057
-375.668
-367.053
-358.152
-348.778
-338.574
-326.522
-304.05
-279.626
-263.559
-249.442
-236.253
-223.591
-211.255
-199.127
-187.133
-175.226
-163.372
-151.55
-139.745
-127.947
-116.149
-104.348
-92.5418
-80.7298
-68.9127
-57.0921
-45.2703
-33.4504
-21.6356
-9.82982
1.96272
13.7376
25.4901
37.2152
48.9079
60.5627
72.1743
83.737
95.2452
106.693
118.075
129.384
140.616
151.763
162.82
173.781
184.639
195.389
206.024
216.538
226.926
237.181
247.297
257.269
267.089
276.749
286.243
295.562
304.694
313.63
322.357
330.863
339.14
347.179
354.975
362.523
369.82
376.864
383.653
390.184
396.458
402.475
408.233
413.733
418.977
423.964
428.696
433.174
437.401
441.379
445.11
448.598
451.846
454.857
457.826
460.889
463.7
466.098
468.184
469.99
471.528
472.808
473.834
474.608
475.133
475.411
475.443
475.231
474.777
474.081
473.145
471.969
470.554
468.904
467.018
464.9
462.552
459.976
457.174
454.15
450.906
447.446
443.772
439.887
435.796
431.502
427.008
422.319
417.439
412.37
407.119
401.689
396.086
390.313
384.375
378.277
372.024
365.62
359.071
352.381
345.556
338.6
331.519
324.318
317.002
309.577
302.047
294.417
286.694
278.882
270.987
263.014
254.969
246.855
238.68
230.447
222.163
213.832
205.461
197.053
188.614
180.151
171.668
163.173
154.671
146.171
137.683
129.205
120.722
112.214
103.662
95.07
85.9974
77.0032
68.2007
59.5341
50.9524
42.4446
34.005
25.6318
17.3244
9.08304
0.908775
-7.19725
-15.2336
-23.1988
-31.0911
-38.9088
-46.6504
-54.3141
-61.8984
-69.4016
-76.8221
-84.1581
-91.4083
-98.5712
-105.645
-112.63
-119.523
-126.324
-133.032
-139.645
-146.164
-152.586
-158.912
-165.14
-171.27
-177.301
-183.233
-189.067
-194.8
-200.434
-205.968
-211.402
-216.736
-221.971
-227.107
-232.144
-237.082
-241.923
-246.666
-251.313
-255.863
-260.318
-264.678
-268.943
-273.115
-277.194
-281.181
-285.076
-288.881
-292.596
-296.221
-299.759
-303.208
-306.571
-309.848
-313.039
-316.146
-319.169
-322.108
-324.965
-327.741
-330.435
-333.05
-335.585
-338.042
-340.421
-342.723
-344.949
-347.1
-349.176
-351.178
-353.107
-354.963
-356.748
-358.461
-360.104
-361.677
-363.181
-364.617
-365.985
-367.285
-368.518
-369.687
-370.79
-371.828
-372.8
-373.708
-374.55
-375.329
-376.047
-376.7
-377.282
-377.809
-378.289
-378.696
-379.029
-379.303
-379.525
-379.697
-379.805
-379.865
-379.871
-379.799
-379.658
-379.466
-379.219
-378.914
-378.548
-378.121
-377.633
-377.086
-376.48
-375.819
-375.102
-374.332
-373.51
-372.635
-371.703
-370.704
-369.63
-368.479
-367.251
-365.946
-364.567
-363.114
-361.586
-359.98
-358.303
-356.545
-354.692
-352.781
-350.791
-348.729
-346.589
-344.371
-342.075
-339.699
-337.243
-334.706
-332.088
-329.388
-326.605
-323.739
-320.789
-317.755
-314.637
-311.433
-308.144
-304.769
-301.308
-297.76
-294.125
-290.403
-286.594
-282.695
-278.709
-274.637
-270.477
-266.23
-261.896
-257.474
-252.964
-248.368
-243.684
-238.913
-234.055
-229.112
-224.082
-218.967
-213.767
-208.484
-203.116
-197.664
-192.126
-186.505
-180.802
-175.02
-169.16
-163.221
-157.202
-151.104
-144.928
-138.674
-132.343
-125.936
-119.452
-112.894
-106.261
-99.5553
-92.777
-85.927
-79.0066
-72.0163
-64.9573
-57.8306
-50.6369
-43.3778
-36.0542
-28.6675
-21.2193
-13.7103
-6.14325
1.48136
9.16265
16.8983
24.6852
32.5223
40.4065
48.3361
56.3084
64.3204
72.37
80.4529
88.5665
96.7165
104.895
113.094
121.312
129.546
137.791
146.042
154.289
162.549
170.818
179.087
187.349
195.603
203.844
212.07
220.276
228.459
236.616
244.742
252.834
260.887
268.898
276.861
284.773
292.633
300.437
308.18
315.86
323.47
331.006
338.465
345.842
353.133
360.333
367.441
374.45
381.359
388.163
394.86
401.444
407.912
414.26
420.484
426.581
432.546
438.376
444.068
449.619
455.025
460.281
465.386
470.334
475.123
479.752
484.217
488.515
492.642
496.598
500.379
503.985
507.412
510.659
513.725
516.603
519.294
521.799
524.116
526.244
528.184
529.933
531.498
532.884
534.121
535.212
536.038
536.781
537.66
-431.546
-423.877
-416.119
-408.272
-400.328
-392.266
-384.061
-375.674
-367.06
-358.157
-348.781
-338.576
-326.524
-304.055
-279.621
-263.553
-249.436
-236.247
-223.585
-211.249
-199.12
-187.126
-175.218
-163.363
-151.541
-139.735
-127.936
-116.137
-104.335
-92.5282
-80.7153
-68.8973
-57.0758
-45.2531
-33.4323
-21.6167
-9.81012
1.98321
13.7588
25.512
37.2378
48.9312
60.5867
72.199
83.7623
95.2711
106.72
118.102
129.412
140.644
151.792
162.85
173.811
184.67
195.42
206.056
216.57
226.958
237.214
247.331
257.303
267.123
276.784
286.278
295.597
304.73
313.666
322.394
330.901
339.178
347.217
355.013
362.561
369.858
376.902
383.69
390.222
396.496
402.511
408.269
413.769
419.012
423.998
428.729
433.206
437.432
441.407
445.135
448.617
451.857
454.848
457.781
460.875
463.702
466.107
468.198
470.004