/*--------------------------------*- C++ -*----------------------------------*\
| =========                 |                                                 |
| \\      /  F ield         | OpenFOAM: The Open Source CFD Toolbox           |
|  \\    /   O peration     | Version:  v1812                                 |
|   \\  /    A nd           | Web:      www.OpenFOAM.com                      |
|    \\/     M anipulation  |                                                 |
\*---------------------------------------------------------------------------*/
FoamFile
{
    version     2.0;
    format      ascii;
    class       volScalarField;
    location    "300";
    object      omega;
}
// * * * * * * * * * * * * * * * * * * * * * * * * * * * * * * * * * * * * * //

dimensions      [0 0 -1 0 0 0 0];


internalField   nonuniform List<scalar> 
366376
(
58.2109
58.1652
58.1346
58.1045
58.0748
58.0453
58.0161
57.9869
57.9579
57.929
57.9001
57.8713
57.8426
57.814
57.7854
57.7568
57.728
57.6991
57.6698
57.6402
57.6103
57.58
57.5494
57.5185
57.4872
57.4556
57.4237
57.3915
57.3589
57.3259
57.2926
57.2589
57.2248
57.1902
57.1552
57.1197
57.0837
57.0473
57.0104
56.9731
56.9352
56.8968
56.858
56.8186
56.7788
56.7384
56.6976
56.6562
56.6143
56.572
56.5291
56.4857
56.4419
56.3975
56.3526
56.3072
56.2612
56.2148
56.1679
56.1205
56.0725
56.0241
55.9751
55.9257
55.8758
55.8253
55.7744
55.7231
55.6712
55.6189
55.5661
55.5128
55.4591
55.405
55.3504
55.2954
55.24
55.1842
55.128
55.0714
55.0145
54.9572
54.8996
54.8417
54.7834
54.7249
54.6662
54.6071
54.5479
54.4885
54.4289
54.3691
54.3092
54.2492
54.1891
54.1289
54.0688
54.0086
53.9485
53.8885
53.8285
53.7687
53.7091
53.6496
53.5904
53.5315
53.4729
53.4147
53.3568
53.2994
53.2424
53.186
53.1301
53.0748
53.0201
52.9661
52.9129
52.8604
52.8087
52.7578
52.7077
52.6579
52.6083
52.5588
52.5097
52.4607
52.4121
52.3638
52.3158
52.2682
52.2209
52.174
52.1276
52.0816
52.036
51.9909
51.9464
51.9023
51.8588
51.8158
51.7733
51.7315
51.6902
51.6496
51.6096
51.5702
51.5315
51.4935
51.4561
51.4194
51.3834
51.3482
51.3136
51.2798
51.2467
51.2143
51.1827
51.1519
51.1218
51.0926
51.0641
51.0364
51.0095
50.9835
50.9582
50.9338
50.9102
50.8875
50.8656
50.8446
50.8244
50.8052
50.7868
50.7694
50.7528
50.7372
50.7225
50.7087
50.696
50.6869
50.6896
50.7047
50.7322
50.7725
50.8258
50.8921
50.9718
51.0649
51.1716
51.292
51.4261
51.5741
51.7359
51.9116
52.1011
52.3043
52.5211
52.7514
52.995
53.2516
53.5211
53.803
54.0971
54.403
54.7201
55.0481
55.3865
55.7345
56.0918
56.4557
56.8225
57.1921
57.5649
57.9408
58.32
58.7026
59.0888
59.4784
59.8729
60.2751
60.6774
61.0834
61.4938
61.9088
62.3286
62.7535
63.1835
63.619
64.0601
64.5071
64.9604
65.4201
65.8866
66.3603
66.8415
67.3305
67.8278
68.3338
68.8489
69.3736
69.9085
70.4541
71.011
71.5797
72.1611
72.7557
73.3645
73.9881
74.6276
75.2837
75.9576
76.6502
77.3627
78.0963
78.8454
79.6041
80.3722
81.1495
81.936
82.7313
83.5353
84.3478
85.1684
85.997
86.8333
87.677
88.5279
89.3857
90.2501
91.1207
91.9973
92.8796
93.7671
94.6597
95.5568
96.4582
97.3635
98.2723
99.1843
100.099
101.016
101.935
102.855
103.777
104.699
105.621
106.543
107.464
108.384
109.303
110.219
111.133
112.043
112.95
113.853
114.751
115.644
116.531
117.412
118.286
119.153
120.012
120.863
121.705
122.538
123.36
124.172
124.973
125.763
126.54
127.304
128.055
128.793
129.515
130.223
130.916
131.592
132.252
132.895
133.52
134.126
134.715
135.283
135.832
136.361
136.868
137.355
137.819
138.261
138.681
139.077
139.448
139.796
140.119
140.416
140.687
140.933
141.151
141.343
141.506
141.642
141.749
141.827
141.876
141.895
141.886
141.845
141.773
141.668
141.532
141.363
141.162
140.927
140.659
140.358
140.023
139.655
139.256
138.824
138.361
137.865
137.337
136.777
136.185
135.561
134.904
134.215
133.495
132.742
131.958
131.142
130.295
129.417
128.508
127.568
126.598
125.598
124.569
123.511
122.424
121.309
120.168
118.999
117.805
116.586
115.343
114.076
112.787
111.478
110.148
108.799
107.433
106.051
104.653
103.243
101.821
100.388
98.947
97.4988
96.0453
94.5882
93.1293
91.6704
90.2133
88.7598
87.3116
85.8707
84.4389
83.0179
81.6096
80.2156
78.8378
77.4779
76.1374
74.8182
73.5216
72.2492
71.0025
69.7829
68.5916
67.4299
66.2989
65.1996
64.133
63.0998
62.1008
61.1365
60.2074
59.3136
58.4556
57.6332
56.8463
56.0949
55.3786
54.697
54.0495
53.4353
52.8538
52.3041
51.7854
51.2966
50.8366
50.4045
49.9991
49.6192
49.2638
48.9317
48.6217
48.3327
48.0636
47.8134
47.581
47.3681
47.1803
47.0164
46.8753
46.7558
46.6569
46.5776
46.5169
46.474
46.4479
46.4379
46.4428
46.4623
46.4957
46.542
46.6005
46.6705
46.7513
46.8421
46.9422
47.051
47.1677
47.2917
47.4223
47.5589
47.7007
47.8471
47.9975
48.1513
48.3079
48.4666
48.627
48.7885
48.9505
49.1125
49.2741
49.4347
49.5939
49.7514
49.9067
50.0621
50.216
50.3672
50.5156
50.6614
50.8045
50.9451
51.0831
51.2186
51.3516
51.4822
51.6105
51.7363
51.8599
51.9812
52.1002
52.2171
52.3318
52.4444
52.5549
52.6633
52.7698
52.8742
52.9768
53.0774
53.1762
53.2732
53.3683
53.4618
53.5535
53.6435
53.7319
53.8186
53.9038
53.9874
54.0695
54.1501
54.2293
54.3071
54.3834
54.4584
54.5321
54.6044
54.6755
54.7454
54.8141
54.8815
54.9479
55.0131
55.0772
55.1402
55.2022
55.2632
55.3232
55.3822
55.4403
55.4975
55.5538
55.6092
55.6639
55.7177
55.7706
55.8228
55.8742
55.9248
55.9745
56.024
56.0738
56.122
56.1697
56.2168
56.2633
56.3094
56.3549
56.3999
56.4445
56.4887
56.5324
56.5758
56.6188
56.6615
56.7038
56.7459
56.7876
56.8291
56.8704
56.9115
56.9524
56.9931
57.0337
57.0741
57.1144
57.1547
57.1949
57.235
57.2751
57.3151
57.3552
57.3953
57.4349
57.4737
57.5118
57.549
57.5856
57.6214
57.6565
57.6908
57.7245
57.7575
57.7898
57.8214
57.8525
57.8828
57.9126
57.9417
57.9702
57.9982
58.0255
58.0523
58.0786
58.1043
58.1294
58.154
58.1781
58.2017
58.2248
58.2474
58.2696
58.2912
58.3124
58.3332
58.3535
58.3734
58.3928
58.4119
58.4305
58.4487
58.4666
58.484
58.5011
58.5178
58.5341
58.5501
58.5657
58.581
58.5959
58.6106
58.6249
58.6389
58.6525
58.6659
58.679
58.6918
58.7043
58.7165
58.7284
58.7401
58.7515
58.7627
58.7736
58.7842
58.7946
58.8048
58.8148
58.8245
58.834
58.8432
58.8523
58.8611
58.8697
58.8782
58.8864
58.8944
58.9023
58.9099
58.9174
58.9247
58.9318
58.9388
58.9456
58.9522
58.9586
58.9649
58.971
58.977
58.9828
58.9884
58.994
58.9994
59.0047
59.0098
59.0148
59.0196
59.0243
59.0289
59.0334
59.0377
59.0419
59.046
59.05
59.0539
59.0576
59.0612
59.0648
59.0682
59.0716
59.0748
59.0779
59.081
59.0838
59.0867
59.0894
59.092
59.0946
59.0971
59.0995
59.1017
59.1039
59.106
59.108
59.1099
59.1118
59.1135
59.1153
59.1169
59.1184
59.1198
59.1212
59.1225
59.1239
59.1251
59.1261
59.127
59.1279
59.1288
59.1296
59.1302
59.1308
59.1315
59.1322
59.1327
59.133
59.1332
59.1335
59.1338
59.134
59.1338
59.1338
59.134
59.134
59.1335
59.1333
59.1333
59.1332
59.1323
59.1317
59.1311
59.1305
59.1299
59.1291
59.1283
59.1278
59.1271
59.1258
59.1248
59.1241
59.123
59.1219
59.1203
59.119
59.1178
59.116
59.1145
59.1133
59.1114
59.1097
59.1083
59.1064
59.1045
59.1027
59.1008
59.0986
59.0965
59.0944
59.0923
59.0898
59.0873
59.0849
59.0825
59.08
59.0772
59.0745
59.0718
59.069
59.0659
59.063
59.06
59.057
59.0537
59.0503
59.047
59.0437
59.0404
59.0369
59.0332
59.0295
59.0258
59.022
59.0182
59.0143
59.0103
59.0063
59.0022
58.9979
58.9935
58.9892
58.985
58.9808
58.9762
58.9715
58.9666
58.9619
58.9575
58.953
58.9481
58.943
58.9379
58.9328
58.9279
58.9232
58.9181
58.9128
58.9074
58.9021
58.8969
58.8918
58.8865
58.8811
58.8755
58.8701
58.8648
58.8595
58.8541
58.8486
58.843
58.8375
58.8321
58.8268
58.8213
58.8159
58.8104
58.805
58.7996
58.7942
58.7889
58.7836
58.7782
58.7729
58.7676
58.7623
58.7571
58.7519
58.7467
58.7415
58.7364
58.7313
58.7262
58.7211
58.7161
58.711
58.706
58.701
58.6961
58.6912
58.6863
58.6814
58.6766
58.6719
58.6673
58.6629
58.6587
58.6546
58.6506
58.6467
58.6432
58.6398
58.6366
58.6337
58.6313
58.6294
58.6282
58.6277
58.6278
58.6285
58.63
58.6325
58.636
58.6404
58.646
58.6529
58.6608
58.6702
58.681
58.6931
58.7068
58.7219
58.7385
58.7563
58.7754
58.7961
58.8183
58.8421
58.8673
58.8938
58.9216
58.9506
58.9807
59.0118
59.0438
59.0764
59.1099
59.1439
59.1785
59.2135
59.2487
59.284
59.3193
59.3546
59.3895
59.4241
59.4582
59.4919
59.525
59.5576
59.5896
59.6212
59.6522
59.6828
59.713
59.7428
59.7722
59.8013
59.83
59.8586
59.887
59.9153
59.9437
59.9721
60.0008
60.0299
60.0595
60.0899
60.1212
60.1536
60.187
60.2216
60.2577
60.2951
60.334
60.3746
60.417
60.4613
60.5076
60.5558
60.6062
60.6586
60.7129
60.7691
60.8274
60.8877
60.9499
61.014
61.08
61.1479
61.2176
61.2891
61.3623
61.4371
61.5132
61.5905
61.6693
61.7491
61.8299
61.9117
61.9945
62.0779
62.1618
62.2465
62.3319
62.4178
62.5038
62.5902
62.6766
62.7629
62.8494
62.9365
63.0238
63.111
63.1982
63.2854
63.3727
63.4601
63.548
63.6366
63.7259
63.8156
63.906
63.9974
64.0894
64.1826
64.2774
64.3729
64.4694
64.5672
64.6661
64.766
64.8668
64.9688
65.0719
65.1757
65.2801
65.3852
65.4912
65.5974
65.7036
65.81
65.9164
66.0223
66.1272
66.2315
66.3344
66.4355
66.5346
66.6315
66.7258
66.817
66.9047
66.9888
67.0684
67.1433
67.213
67.2774
67.3362
67.389
67.4357
67.476
67.5096
67.5362
67.5555
67.5673
67.5712
67.5673
67.5554
67.5352
67.5066
67.4695
67.4238
67.3695
67.3066
67.2353
67.1555
67.0673
66.9708
66.8664
66.7541
66.634
66.5066
66.3719
66.2304
66.0825
65.9282
65.7685
65.6033
65.4333
65.2589
65.0805
64.8987
64.7141
64.5269
64.3381
64.1479
63.9571
63.7659
63.575
63.385
63.1964
63.0095
62.8249
62.6432
62.4648
62.2899
62.119
61.9522
61.7899
61.6324
61.4804
61.3343
61.1942
61.0599
60.9311
60.8079
60.6909
60.5804
60.4768
60.3799
60.2899
60.2068
60.1306
60.0609
59.9977
59.9409
59.8901
59.8452
59.8061
59.7727
59.7447
59.7218
59.7036
59.6897
59.6797
59.6735
59.6706
59.6707
59.6732
59.6779
59.6846
59.6924
59.7014
59.711
59.7209
59.7305
59.7396
59.7481
59.7557
59.7621
59.7673
59.7712
59.7736
59.7742
59.773
59.7695
59.7636
59.7548
59.7427
59.7271
59.7078
59.6846
59.6574
59.6261
59.5906
59.5507
59.5066
59.4584
59.4065
59.3512
59.2925
59.2298
59.1631
59.094
59.0213
58.9459
58.8676
58.7867
58.7033
58.6176
58.5298
58.4399
58.3481
58.2546
58.1596
58.0628
57.9646
57.8655
57.7651
57.6635
57.5612
57.4581
57.3545
57.2505
57.1461
57.0415
56.937
56.8327
56.7289
56.6257
56.5233
56.4219
56.3214
56.222
56.1239
56.0272
55.9321
55.8385
55.7465
55.6562
55.5675
55.4804
55.3951
55.3115
55.2298
55.1499
55.072
54.9958
54.9213
54.8485
54.7774
54.708
54.6402
54.5741
54.5097
54.4469
54.3858
54.3263
54.2684
54.2119
54.1569
54.1031
54.0505
53.9989
53.9482
53.8981
53.8486
53.7993
53.7501
53.7007
53.6509
53.6007
53.5498
53.4981
53.4456
53.3918
53.3369
53.2807
53.2231
53.1641
53.1034
53.0414
52.9781
52.9134
52.8472
52.7801
52.712
52.6429
52.5729
52.5021
52.4308
52.359
52.2867
52.2139
52.1411
52.0675
51.9922
51.9156
51.8377
51.7586
51.6786
51.5988
51.5278
51.4678
51.4193
51.3827
51.3578
51.3448
51.3437
51.3553
51.3794
51.4163
51.4656
51.5273
51.6018
51.689
51.7885
51.9004
52.0254
52.1622
52.3118
52.4737
52.6476
52.834
53.0321
53.2421
53.4638
53.6968
53.9413
54.1963
54.4621
54.7384
55.0245
55.3201
55.6245
55.9376
56.2589
56.5873
56.9224
57.2635
57.6096
57.9602
58.3139
58.6701
59.0276
59.3852
59.7419
60.0962
60.447
60.7927
61.1339
61.4941
61.8814
62.2935
62.7189
63.1512
63.5893
64.0333
64.4831
64.9392
65.4018
65.8711
66.3475
66.8316
67.3236
67.8241
68.3336
68.8526
69.3818
69.9218
70.4733
71.037
71.6139
72.2048
72.8106
73.4323
74.0713
74.7285
75.4053
76.1031
76.8239
77.5694
78.3317
79.1045
79.8874
80.6801
81.4823
82.2937
83.1138
83.9422
84.7786
85.6225
86.4734
87.3309
88.1947
89.0641
89.9388
90.8182
91.7019
92.5895
93.4802
94.3736
95.2691
96.1664
97.0649
97.9642
98.8637
99.7627
100.66
101.556
102.449
103.339
104.226
105.11
105.988
106.861
107.729
108.59
109.444
110.291
111.129
111.959
112.779
113.59
114.389
115.177
115.953
116.717
117.467
118.203
118.926
119.632
120.323
120.999
121.657
122.298
122.92
123.525
124.109
124.673
125.217
125.739
126.239
126.716
127.169
127.598
128.002
128.381
128.734
129.06
129.36
129.632
129.876
130.093
130.281
130.44
130.57
130.67
130.74
130.78
130.79
130.771
130.72
130.638
130.524
130.38
130.205
129.998
129.76
129.491
129.191
128.861
128.5
128.111
127.694
127.249
126.775
126.274
125.746
125.19
124.608
123.999
123.364
122.703
122.015
121.303
120.565
119.802
119.015
118.204
117.368
116.509
115.627
114.722
113.796
112.848
111.878
110.889
109.879
108.849
107.8
106.734
105.649
104.547
103.428
102.294
101.144
99.9799
98.8013
97.6086
96.4032
95.1862
93.9581
92.7198
91.4734
90.2212
88.9654
87.7091
86.4562
85.2095
83.9722
82.7469
81.5368
80.3438
79.1694
78.0148
76.8813
75.7689
74.6778
73.6079
72.5586
71.5301
70.5217
69.5326
68.5623
67.6102
66.6757
65.7588
64.8591
63.9762
63.1104
62.2614
61.4295
60.6148
59.8173
59.0373
58.2753
57.5314
56.806
56.0994
55.412
54.7441
54.096
53.4678
52.86
52.2727
51.706
51.16
50.6346
50.1299
49.6457
49.1815
48.7381
48.3142
47.9166
47.5491
47.2112
46.901
46.6179
46.3612
46.1298
45.9225
45.7381
45.5754
45.4335
45.3111
45.2075
45.1218
45.053
45.0006
44.9634
44.9409
44.9323
44.9365
44.9534
44.9825
45.0231
45.0746
45.1365
45.2083
45.2896
45.3797
45.4783
45.5847
45.6984
45.819
45.9458
46.0781
46.2156
46.3575
46.5031
46.6516
46.8025
46.955
47.1081
47.2721
47.4519
47.6337
47.8146
47.9945
48.1735
48.3512
48.5274
48.7022
48.8755
49.0472
49.217
49.385
49.5511
49.7152
49.877
50.0366
50.194
50.3491
50.5016
50.6516
50.799
50.9437
51.0854
51.2242
51.3601
51.493
51.6227
51.7493
51.8728
51.9931
52.1101
52.2238
52.3342
52.4412
52.5448
52.645
52.742
52.8354
52.9255
53.0121
53.0953
53.175
53.2512
53.3242
53.3937
53.4601
53.5236
53.5852
53.6459
53.7072
53.7682
53.8271
53.8837
53.9379
53.9896
54.0388
54.0854
54.1294
54.1707
54.2092
54.245
54.278
54.3083
54.3362
54.3618
54.3853
54.4068
54.4266
54.4448
54.4613
54.4765
54.4902
54.5029
54.5145
54.5251
54.5349
54.5441
54.5526
54.5605
54.568
54.5749
54.5814
54.5873
54.5928
54.5978
54.6022
54.6061
54.6096
54.6127
54.6153
54.6175
54.6194
54.6209
54.622
54.6228
54.6232
54.6232
54.623
54.6226
54.6222
54.6217
54.621
54.6202
54.619
54.6176
54.6158
54.6139
54.6121
54.6103
54.6084
54.6065
54.6046
54.6026
54.6008
54.5991
54.5975
54.596
54.5946
54.5934
54.5925
54.5917
54.5911
54.5906
54.5909
54.5912
54.5919
54.5931
54.5946
54.5967
54.5992
54.6022
54.6056
54.6094
54.6137
54.6185
54.6237
54.6292
54.6353
54.642
54.6489
54.6562
54.6638
54.6717
54.6798
54.6879
54.6959
54.7041
54.7121
54.7199
54.7275
54.7351
54.7425
54.7497
54.7568
54.7639
54.7707
54.777
54.783
54.7885
54.7936
54.7981
54.8022
54.806
54.8094
54.8126
54.8155
54.8183
54.8209
54.8234
54.8259
54.8284
54.831
54.8335
54.8361
54.8391
54.8422
54.8454
54.8489
54.8529
54.8574
54.8619
54.8667
54.872
54.8776
54.8832
54.889
54.8951
54.9012
54.907
54.9125
54.9181
54.9235
54.9283
54.9325
54.9364
54.9395
54.9415
54.9425
54.9425
54.9412
54.9382
54.9336
54.9276
54.9199
54.9103
54.899
54.8861
54.8716
54.8554
54.8374
54.8176
54.7961
54.7727
54.7473
54.7201
54.691
54.6601
54.6274
54.5929
54.5569
54.5195
54.4808
54.4409
54.4002
54.3588
54.3168
54.2745
54.2321
54.1898
54.1478
54.1062
54.0655
54.0255
53.9865
53.9485
53.912
53.8771
53.8439
53.8128
53.7838
53.7572
53.7331
53.7118
53.6934
53.6779
53.6657
53.6567
53.6512
53.6491
53.6506
53.6557
53.6645
53.677
53.6933
53.7135
53.7376
53.7655
53.7973
53.833
53.8727
53.9162
53.9636
54.0147
54.0698
54.132
54.2029
54.2826
54.3708
54.4675
54.5724
54.6853
54.8061
54.9346
55.0704
55.2133
55.3631
55.5194
55.6817
55.8497
56.0233
56.2019
56.3851
56.5723
56.7634
56.9578
57.1549
57.3543
57.5557
57.7585
57.9622
58.1662
58.3702
58.5737
58.776
58.9769
59.1761
59.3731
59.5675
59.7588
59.9466
60.1303
60.3095
60.484
60.6534
60.8172
60.9749
61.1263
61.271
61.4085
61.5388
61.6618
61.7771
61.8845
61.9841
62.0756
62.1588
62.2334
62.2996
62.3571
62.4059
62.4461
62.4779
62.5014
62.5168
62.5241
62.5237
62.5158
62.5006
62.4785
62.4497
62.4145
62.3733
62.3264
62.2739
62.2162
62.154
62.0876
62.0171
61.943
61.8659
61.7862
61.7041
61.6196
61.5336
61.4464
61.3579
61.2682
61.1783
61.0883
60.9981
60.9078
60.8182
60.7294
60.641
60.5533
60.467
60.3824
60.2992
60.2176
60.1379
60.0597
59.9828
59.9074
59.834
59.7626
59.6933
59.6261
59.5611
59.4984
59.438
59.3801
59.3246
59.2715
59.2208
59.1724
59.126
59.0816
59.0395
58.9998
58.9627
58.9282
58.8963
58.867
58.8403
58.8164
58.7952
58.7768
58.7612
58.7483
58.7381
58.7305
58.7257
58.7238
58.7244
58.7274
58.7329
58.7409
58.7515
58.7645
58.7796
58.7969
58.8159
58.8361
58.8574
58.88
58.9043
58.9302
58.9579
58.9877
59.0196
59.0534
59.0884
59.1249
59.1631
59.2026
59.2431
59.2848
59.3279
59.372
59.4169
59.4627
59.5095
59.5569
59.6047
59.6529
59.7015
59.7502
59.7988
59.8473
59.8956
59.9436
59.9912
60.0384
60.0851
60.1312
60.1765
60.2211
60.2647
60.3072
60.3486
60.3887
60.4275
60.4651
60.5011
60.5357
60.5686
60.5997
60.6288
60.6559
60.6811
60.7043
60.7256
60.7449
60.7622
60.7775
60.7909
60.802
60.8106
60.817
60.8214
60.824
60.8248
60.8236
60.821
60.8172
60.8118
60.8051
60.7973
60.7887
60.7791
60.7685
60.7571
60.7455
60.7335
60.7213
60.7089
60.697
60.6853
60.6739
60.6631
60.6532
60.6442
60.6364
60.6298
60.6248
60.6214
60.6198
60.6197
60.6212
60.6244
60.6295
60.6361
60.6443
60.6542
60.6658
60.679
60.6936
60.7098
60.7277
60.7469
60.7674
60.7892
60.8124
60.8367
60.862
60.8886
60.9164
60.9453
60.975
61.0059
61.0378
61.0699
61.1021
61.1349
61.1684
61.2021
61.2359
61.2701
61.3045
61.3387
61.3727
61.4067
61.4405
61.4737
61.5064
61.5388
61.5705
61.6013
61.631
61.6599
61.6877
61.7142
61.7393
61.7629
61.7849
61.8053
61.8241
61.841
61.8559
61.8689
61.8801
61.8891
61.8961
61.901
61.9041
61.9053
61.9047
61.9023
61.8979
61.892
61.8846
61.8754
61.8645
61.8519
61.838
61.8227
61.8062
61.7884
61.7695
61.7497
61.7292
61.7077
61.6857
61.6633
61.6405
61.6175
61.5944
61.5716
61.549
61.5265
61.5042
61.4826
61.4619
61.442
61.423
61.4052
61.3887
61.3735
61.3598
61.3478
61.3377
61.3292
61.3227
61.3183
61.3161
61.316
61.3182
61.3228
61.3298
61.3392
61.351
61.3653
61.3821
61.4013
61.423
61.447
61.4733
61.502
61.5331
61.5664
61.6018
61.6393
61.6789
61.7205
61.7637
61.8087
61.8556
61.9039
61.9536
62.0046
62.0568
62.1099
62.1638
62.2182
62.2731
62.3282
62.3833
62.4382
62.4926
62.5464
62.5992
62.6506
62.7005
62.7485
62.7942
62.8374
62.8777
62.9148
62.9485
62.9785
63.0047
63.027
63.0449
63.0582
63.0664
63.0696
63.0687
63.0636
63.0521
63.0359
63.0144
62.9875
62.9556
62.9191
62.8778
62.8313
62.7793
62.7236
62.6639
62.5996
62.5323
62.4604
62.3852
62.3064
62.2236
62.1378
62.0488
61.9562
61.8605
61.7613
61.6592
61.5543
61.446
61.3351
61.2209
61.1026
60.9806
60.8562
60.7288
60.5967
60.4598
60.3184
60.1726
60.0222
59.8684
59.7124
59.5544
59.3931
59.2246
59.0481
58.8654
58.6817
58.493
58.3049
58.1133
57.9204
57.7267
57.5318
57.3358
57.1404
56.9458
56.7525
56.5611
56.3724
56.1873
56.0062
55.8293
55.6569
55.489
55.3256
55.1668
55.0129
54.8644
54.7216
54.5849
54.4543
54.3301
54.2133
54.1044
54.004
53.9127
53.8305
53.7577
53.6949
53.6416
53.5975
53.5623
53.5362
53.5196
53.5119
53.5116
53.5175
53.5294
53.547
53.5698
53.597
53.6281
53.6605
53.6941
53.7286
53.7623
53.7959
53.8273
53.8566
53.8834
53.9081
53.9304
53.9486
53.9618
53.9697
53.9722
53.9692
53.9599
53.9432
53.9187
53.8871
53.8489
53.8039
53.7514
53.6919
53.6265
53.5551
53.4782
53.3961
53.3088
53.2175
53.123
53.0251
52.9235
52.8176
52.7036
52.5823
52.4672
52.3633
52.2726
52.1972
52.1389
52.0995
52.0798
52.0809
52.1047
52.1518
52.2221
52.3161
52.4342
52.5757
52.7405
52.9282
53.138
53.3693
53.6206
53.8916
54.1805
54.4864
54.8077
55.1436
55.4927
55.8534
56.224
56.6032
56.9886
57.3787
57.7715
58.1646
58.5556
58.942
59.3296
59.755
60.2184
60.7007
61.192
61.6909
62.1969
62.71
63.2302
63.7577
64.2927
64.8352
65.3856
65.9441
66.5111
67.087
67.6721
68.2671
68.8724
69.4886
70.1163
70.7563
71.4091
72.0758
72.757
73.4538
74.1677
74.8997
75.6508
76.4223
77.2123
78.0105
78.8157
79.6276
80.4458
81.27
82.0997
82.9345
83.7739
84.6173
85.4645
86.315
87.1683
88.024
88.8815
89.7405
90.6004
91.4607
92.321
93.1807
94.0395
94.8968
95.7521
96.6051
97.4553
98.3023
99.1456
99.985
100.82
101.65
102.475
103.295
104.109
104.916
105.717
106.51
107.297
108.076
108.846
109.609
110.362
111.107
111.842
112.567
113.282
113.986
114.68
115.362
116.032
116.69
117.335
117.968
118.586
119.191
119.781
120.355
120.914
121.457
121.984
122.493
122.985
123.458
123.912
124.347
124.761
125.156
125.53
125.883
126.214
126.52
126.801
127.057
127.288
127.496
127.683
127.85
127.996
128.122
128.222
128.296
128.331
128.338
128.297
128.225
128.094
127.94
127.721
127.462
127.097
126.616
125.465
123.91
123.928
124.263
124.737
125.044
125.135
125.128
125.045
124.873
124.644
124.4
124.153
123.891
123.582
123.201
122.739
122.203
121.619
121.011
120.393
119.765
119.119
118.445
117.742
117.008
116.246
115.456
114.638
113.793
112.921
112.022
111.097
110.147
109.173
108.175
107.156
106.115
105.055
103.977
102.883
101.773
100.648
99.5119
98.3642
97.2076
96.0425
94.8698
93.6909
92.5067
91.3176
90.1247
88.9284
87.7294
86.5285
85.3264
84.1245
82.9229
81.7227
80.5251
79.3307
78.1396
76.9537
75.7739
74.6004
73.4348
72.2782
71.1315
69.9961
68.8734
67.7643
66.6705
65.5932
64.5336
63.4933
62.4734
61.4747
60.4984
59.5458
58.6177
57.715
56.8388
55.9897
55.1681
54.3747
53.6098
52.8736
52.1663
51.4882
50.8392
50.2195
49.6293
49.0699
48.5551
48.0881
47.6658
47.2852
46.9445
46.6404
46.3705
46.1325
45.9241
45.7434
45.5886
45.4582
45.3502
45.2633
45.1963
45.1479
45.117
45.1025
45.1032
45.1183
45.1473
45.1891
45.2429
45.3077
45.3829
45.4673
45.5604
45.6613
45.7691
45.8832
46.0027
46.1268
46.255
46.3864
46.5205
46.6566
46.7941
46.9324
47.0711
47.2097
47.3475
47.4843
47.6197
47.7533
47.8845
48.0132
48.1391
48.2617
48.381
48.4967
48.6088
48.717
48.8212
48.9213
49.0173
49.1104
49.2045
49.2997
49.3947
49.4872
49.5765
49.6624
49.745
49.8242
49.9003
49.9734
50.0437
50.1113
50.1764
50.2394
50.3006
50.3604
50.4195
50.4783
50.5361
50.5923
50.6473
50.7013
50.7545
50.8069
50.8585
50.9097
50.9605
51.0109
51.0609
51.111
51.1613
51.2119
51.2628
51.3142
51.3667
51.42
51.4745
51.5302
51.5876
51.6468
51.7076
51.7701
51.8345
51.901
51.9694
52.0396
52.1118
52.1859
52.2614
52.3382
52.4163
52.4959
52.5767
52.6585
52.7415
52.8255
52.9103
52.9956
53.0813
53.1673
53.2534
53.3393
53.425
53.5105
53.5955
53.68
53.7638
53.8464
53.9277
54.0072
54.0851
54.1613
54.2359
54.3087
54.3793
54.4474
54.513
54.5763
54.6373
54.6957
54.7513
54.8034
54.8517
54.8961
54.9368
54.9745
55.0106
55.0463
55.0837
55.1189
55.1507
55.1793
55.2044
55.226
55.2441
55.259
55.2707
55.2793
55.2846
55.2869
55.2863
55.2831
55.2775
55.2695
55.2593
55.247
55.2326
55.2157
55.1964
55.1752
55.1521
55.1272
55.1006
55.0726
55.0435
55.0135
54.9826
54.9512
54.9197
54.888
54.856
54.8236
54.7914
54.7594
54.7275
54.6956
54.6644
54.6341
54.6045
54.5757
54.5482
54.5223
54.4977
54.4745
54.4528
54.4326
54.414
54.397
54.3821
54.3696
54.36
54.3532
54.3491
54.3472
54.347
54.348
54.35
54.3532
54.3583
54.3655
54.3748
54.386
54.3988
54.4129
54.4282
54.4447
54.4628
54.4825
54.5039
54.5268
54.5509
54.5761
54.6025
54.6302
54.6595
54.6903
54.7222
54.7548
54.7882
54.8226
54.8576
54.8934
54.9301
54.9674
55.0042
55.0412
55.0776
55.1142
55.1504
55.1858
55.2206
55.2548
55.2886
55.3221
55.3573
55.3955
55.4333
55.4693
55.5036
55.5361
55.5663
55.5939
55.6185
55.64
55.658
55.6724
55.6838
55.6934
55.7023
55.7113
55.7202
55.7284
55.7356
55.7418
55.7472
55.7519
55.7569
55.7628
55.7697
55.7775
55.786
55.7952
55.8053
55.817
55.8302
55.8448
55.8611
55.8801
55.9016
55.9257
55.9531
55.9886
56.035
56.0922
56.1606
56.2406
56.3307
56.4301
56.5391
56.6577
56.7848
56.9206
57.0662
57.2216
57.3855
57.5573
57.7368
57.9223
58.1122
58.3061
58.5044
58.7073
58.9154
59.1285
59.3455
59.5654
59.7879
60.0129
60.2399
60.4688
60.6993
60.9307
61.1614
61.391
61.6188
61.844
62.0666
62.2871
62.5054
62.7209
62.9332
63.1428
63.3497
63.5531
63.7524
63.9479
64.1398
64.3277
64.5113
64.6907
64.8663
65.0379
65.2057
65.3704
65.5316
65.6883
65.8396
65.9863
66.1293
66.269
66.4058
66.5398
66.6712
66.7997
66.9263
67.0517
67.1765
67.3003
67.4233
67.5458
67.6677
67.7889
67.9095
68.0295
68.1485
68.266
68.3814
68.4944
68.605
68.713
68.8179
68.9195
69.0173
69.1107
69.1992
69.2824
69.3595
69.4295
69.492
69.5472
69.5956
69.6378
69.674
69.7034
69.7254
69.7388
69.7428
69.7389
69.7287
69.7134
69.6927
69.6653
69.6307
69.5895
69.5416
69.4877
69.4279
69.3621
69.2914
69.2156
69.1347
69.0488
68.9591
68.8644
68.7647
68.662
68.5564
68.4475
68.3354
68.2218
68.1065
67.9911
67.8764
67.7598
67.6439
67.5296
67.4151
67.3021
67.1918
67.0843
66.9802
66.8802
66.7852
66.6954
66.6109
66.5324
66.4603
66.3937
66.3327
66.2785
66.2314
66.1915
66.1584
66.1323
66.1136
66.1033
66.1018
66.1089
66.1248
66.1492
66.1824
66.225
66.2765
66.3355
66.4015
66.4757
66.5583
66.6473
66.7411
66.84
66.9449
67.0566
67.1759
67.303
67.437
67.5778
67.7263
67.8832
68.048
68.2194
68.3967
68.5807
68.7706
68.9653
69.165
69.3722
69.5884
69.8119
70.0413
70.2754
70.5144
70.7605
71.0126
71.2685
71.5295
71.7955
72.0651
72.3376
72.6118
72.8884
73.1675
73.4485
73.73
74.011
74.2923
74.5739
74.8546
75.1353
75.4155
75.692
75.9634
76.2281
76.485
76.7344
76.9772
77.2131
77.4404
77.6583
77.8666
78.0647
78.2517
78.4265
78.5893
78.74
78.8784
79.0038
79.1153
79.2112
79.2913
79.3563
79.4075
79.4462
79.4727
79.4862
79.487
79.4755
79.4507
79.4118
79.3587
79.2914
79.2099
79.1128
79.0001
78.8746
78.7352
78.5814
78.4118
78.2269
78.027
77.8106
77.5756
77.3228
77.0575
76.7776
76.4769
76.1589
75.8312
75.4854
75.1194
74.747
74.3621
73.9581
73.5422
73.121
72.6959
72.2586
71.8077
71.3529
70.8964
70.4295
69.9558
69.4814
69.0058
68.5256
68.0453
67.5692
67.096
66.6239
66.1501
65.6733
65.1961
64.7237
64.2549
63.7864
63.3173
62.8483
62.3821
61.9213
61.4662
61.0169
60.5722
60.1318
59.6983
59.2797
58.8903
58.5455
58.2548
58.0176
57.8266
57.6755
57.5606
57.4795
57.4328
57.4199
57.4358
57.4825
57.5607
57.6702
57.8082
57.9709
58.1542
58.3554
58.5698
58.7964
59.0366
59.2887
59.5529
59.8291
60.1141
60.408
60.711
61.0198
61.3257
61.6272
61.9272
62.2394
62.5692
62.896
63.2162
63.5329
63.8517
64.1717
64.4997
64.8391
65.1867
65.545
65.9181
66.3167
66.7138
67.0725
67.3867
67.6664
67.9185
68.1392
68.3215
68.464
68.5706
68.6467
68.6946
68.7133
68.7051
68.6688
68.6024
68.5067
68.3851
68.2377
68.0668
67.8743
67.6633
67.4346
67.1892
66.9307
66.6623
66.3843
66.0963
65.7977
65.4896
65.1737
64.8486
64.5142
64.1725
63.8228
63.4666
63.107
62.7444
62.3795
62.0138
61.6485
61.285
60.9247
60.5677
60.2134
59.862
59.5152
59.1752
58.8416
58.5127
58.1874
57.865
57.5459
57.231
56.9224
56.6225
56.3333
56.0551
55.7875
55.5295
55.2798
55.0373
54.7996
54.5633
54.3262
54.0906
53.8526
53.6112
53.3594
53.0936
52.8231
52.5451
52.2584
51.9656
51.6702
51.3734
51.0739
50.7722
50.4667
50.1624
49.864
49.5716
49.2854
49.017
48.7673
48.5365
48.3227
48.1268
47.9525
47.8006
47.6662
47.5458
47.4408
47.3554
47.2896
47.2345
47.1716
47.1177
47.0868
47.0751
47.0567
47.0444
47.0541
47.0767
47.0991
47.1216
47.1552
47.2019
47.2518
47.3016
47.3554
47.418
47.4857
47.5657
47.6511
47.7424
47.8475
47.9742
48.1059
48.2373
48.3854
48.5457
48.7069
48.8765
49.0603
49.2572
49.4717
49.6928
49.9069
50.1238
50.3413
50.5439
50.7411
50.934
51.1503
51.4027
51.6818
51.9715
52.2632
52.5567
52.8398
53.1157
53.3956
53.6724
53.9339
54.1658
54.4061
54.6411
54.8467
55.057
55.266
55.4758
55.6771
55.8482
55.9982
56.1258
56.2461
56.3638
56.4802
56.6005
56.7189
56.8195
56.9166
57.02
57.1224
57.2136
57.3051
57.3989
57.4917
57.5749
57.6571
57.7414
57.821
57.8948
57.9699
58.0507
58.1371
58.2237
58.3111
58.4062
58.5064
58.6029
58.705
58.8186
58.9331
59.0442
59.164
59.2909
59.4236
59.5649
59.7162
59.8764
60.0426
60.2098
60.3836
60.5641
60.7409
60.9176
61.0959
61.2716
61.4433
61.6135
61.7831
61.953
62.1226
62.2922
62.4636
62.639
62.8188
62.9998
63.1822
63.3682
63.5618
63.7615
63.9576
64.1521
64.3483
64.55
64.755
64.9592
65.1638
65.3736
65.5933
65.8147
66.0309
66.2484
66.4738
66.7115
66.9576
67.2059
67.4577
67.7197
67.9934
68.2706
68.5483
68.8316
69.1288
69.4403
69.7544
70.0677
70.384
70.708
71.0393
71.3764
71.7214
72.0756
72.4331
72.7908
73.1518
73.5205
73.8944
74.2677
74.6393
75.0116
75.3868
75.7667
76.1527
76.5433
76.9356
77.3282
77.7231
78.125
78.5364
78.9545
79.3753
79.7945
80.2088
80.62
81.0311
81.445
81.8633
82.2867
82.7133
83.1387
83.5599
83.9798
84.4013
84.8078
85.1888
85.5555
85.9168
86.2752
86.6321
86.9897
87.3526
87.7254
88.1101
88.5078
88.9203
89.3482
89.7913
90.2491
90.7181
91.1936
91.6741
92.1575
92.6415
93.1277
93.625
94.1379
94.6633
95.2
95.7521
96.3103
96.8712
97.4496
98.0669
98.7202
99.4032
100.12
100.87
101.651
102.456
103.277
104.119
104.992
105.911
106.902
107.984
109.17
110.479
111.912
113.43
114.885
116.244
117.562
118.859
120.158
121.499
122.916
124.44
126.105
127.945
129.947
132.021
133.929
135.621
137.137
138.553
139.908
141.178
142.319
143.231
143.783
143.94
143.815
143.349
142.587
141.708
140.837
139.941
138.934
137.725
136.262
134.548
132.685
130.988
129.335
127.593
125.619
123.276
120.533
117.529
114.733
112.354
110.511
109.157
108.142
107.396
106.904
106.635
106.567
106.661
106.901
107.148
107.463
108.012
108.888
110.112
111.753
113.918
116.665
119.853
122.601
124.566
125.914
127.048
128.198
129.51
131.025
132.026
132.163
131.416
129.154
125.377
121.587
118.601
115.586
112.157
107.693
101.5
93.3532
84.7001
77.529
72.8752
69.4487
66.5139
65.1745
65.0452
65.7464
67.0125
68.4765
69.8439
70.9063
71.5164
71.7071
71.778
71.8448
71.933
72.1192
72.3817
72.7555
73.189
73.7132
74.376
75.1457
75.9752
76.7598
77.4021
77.974
78.3673
78.6946
79.7994
82.816
88.1774
92.9271
95.6302
97.2192
98.1457
98.7083
99.0102
99.1012
99.2595
99.5244
99.9278
100.502
101.348
102.837
105.679
110.589
115.479
118.517
119.905
120.233
119.729
119.106
118.995
119.216
119.868
120.41
120.763
120.987
121.17
121.489
122.061
122.841
123.465
123.935
124.335
124.727
125.241
126.119
127.557
129.293
130.584
131.306
131.583
131.611
131.324
130.564
129.395
127.934
126.182
124.237
122.566
121.433
120.838
120.563
120.396
120.22
120.03
119.873
119.765
119.707
119.679
119.687
119.736
119.791
119.89
120.03
120.106
120.097
119.907
119.733
119.725
120.384
122.563
126.648
130.172
132.069
132.713
132.784
132.544
132.204
131.828
130.981
129.376
127.612
126.176
124.945
123.78
122.645
121.56
120.541
119.584