/*--------------------------------*- C++ -*----------------------------------*\
| =========                 |                                                 |
| \\      /  F ield         | OpenFOAM: The Open Source CFD Toolbox           |
|  \\    /   O peration     | Version:  v1812                                 |
|   \\  /    A nd           | Web:      www.OpenFOAM.com                      |
|    \\/     M anipulation  |                                                 |
\*---------------------------------------------------------------------------*/
FoamFile
{
    version     2.0;
    format      ascii;
    class       volScalarField;
    location    "300";
    object      p;
}
// * * * * * * * * * * * * * * * * * * * * * * * * * * * * * * * * * * * * * //

dimensions      [1 -1 -2 0 0 0 0];


internalField   nonuniform List<scalar> 
366376
(
3683.07
3683.35
3683.61
3683.86
3684.09
3684.3
3684.48
3684.65
3684.81
3684.95
3685.08
3685.21
3685.32
3685.43
3685.54
3685.64
3685.74
3685.83
3685.92
3686.02
3686.11
3686.2
3686.29
3686.38
3686.47
3686.57
3686.66
3686.76
3686.86
3686.96
3687.06
3687.16
3687.27
3687.37
3687.48
3687.59
3687.7
3687.82
3687.93
3688.05
3688.17
3688.29
3688.42
3688.54
3688.67
3688.8
3688.93
3689.06
3689.2
3689.33
3689.47
3689.62
3689.76
3689.91
3690.05
3690.21
3690.36
3690.51
3690.67
3690.83
3690.99
3691.16
3691.33
3691.5
3691.67
3691.85
3692.02
3692.2
3692.39
3692.57
3692.76
3692.96
3693.15
3693.35
3693.55
3693.75
3693.96
3694.17
3694.38
3694.6
3694.82
3695.04
3695.27
3695.5
3695.74
3695.97
3696.21
3696.46
3696.71
3696.96
3697.22
3697.48
3697.74
3698.01
3698.28
3698.56
3698.84
3699.13
3699.42
3699.71
3700.01
3700.31
3700.62
3700.94
3701.26
3701.58
3701.91
3702.25
3702.59
3702.93
3703.29
3703.64
3704.01
3704.38
3704.75
3705.14
3705.52
3705.92
3706.32
3706.73
3707.15
3707.57
3708.01
3708.44
3708.89
3709.35
3709.81
3710.28
3710.76
3711.25
3711.75
3712.26
3712.78
3713.31
3713.84
3714.39
3714.95
3715.52
3716.1
3716.69
3717.3
3717.91
3718.54
3719.18
3719.83
3720.5
3721.18
3721.87
3722.58
3723.3
3724.04
3724.8
3725.56
3726.35
3727.15
3727.97
3728.81
3729.66
3730.53
3731.43
3732.34
3733.28
3734.24
3735.22
3736.23
3737.27
3738.34
3739.43
3740.56
3741.72
3742.9
3744.12
3745.38
3746.67
3747.99
3749.35
3750.74
3752.17
3753.64
3755.15
3756.69
3758.27
3759.9
3761.56
3763.26
3765.01
3766.8
3768.63
3770.51
3772.43
3774.4
3776.42
3778.49
3780.6
3782.76
3784.98
3787.25
3789.57
3791.94
3794.37
3796.86
3799.4
3801.99
3804.65
3807.36
3810.13
3812.96
3815.84
3818.78
3821.77
3824.82
3827.91
3831.04
3834.21
3837.37
3840.48
3843.34
3846.02
3841.54
3842.81
3844.71
3847.25
3850.19
3853.47
3857.03
3860.85
3864.9
3869.15
3873.59
3878.2
3882.96
3887.87
3892.91
3898.06
3903.32
3908.68
3914.14
3919.7
3925.35
3931.09
3936.92
3942.83
3948.82
3954.89
3961.02
3967.23
3973.5
3979.84
3986.24
3992.71
3999.25
4005.85
4012.52
4019.26
4026.06
4032.92
4039.86
4046.86
4053.92
4061.04
4068.23
4075.49
4082.8
4090.17
4097.61
4105.1
4112.65
4120.25
4127.91
4135.62
4143.38
4151.19
4159.05
4166.96
4174.91
4182.9
4190.93
4199.01
4207.11
4215.26
4223.43
4231.63
4239.86
4248.11
4256.39
4264.69
4273
4281.32
4289.66
4298
4306.35
4314.7
4323.05
4331.4
4339.74
4348.06
4356.38
4364.67
4372.95
4381.2
4389.43
4397.62
4405.78
4413.9
4421.99
4430.02
4438.01
4445.95
4453.83
4461.65
4469.41
4477.1
4484.72
4492.27
4499.75
4507.14
4514.45
4521.67
4528.81
4535.84
4542.78
4549.62
4556.36
4562.98
4569.5
4575.89
4582.18
4588.33
4594.37
4600.28
4606.05
4611.69
4617.2
4622.56
4627.78
4632.84
4637.76
4642.52
4647.12
4651.56
4655.83
4659.92
4663.84
4667.59
4671.16
4674.55
4677.76
4680.79
4683.65
4686.32
4688.8
4691.11
4693.23
4695.16
4696.91
4698.71
4700.68
4702.43
4703.8
4704.93
4705.82
4706.51
4707
4707.29
4707.39
4707.3
4707.03
4706.57
4705.92
4705.1
4704.08
4702.89
4701.52
4699.97
4698.24
4696.34
4694.26
4692.01
4689.58
4686.99
4684.23
4681.3
4678.2
4674.94
4671.52
4667.94
4664.21
4660.32
4656.28
4652.09
4647.75
4643.26
4638.64
4633.88
4628.98
4623.94
4618.78
4613.49
4608.08
4602.54
4596.89
4591.12
4585.24
4579.25
4573.16
4566.97
4560.68
4554.3
4547.83
4541.27
4534.63
4527.91
4521.11
4514.24
4507.31
4500.3
4493.24
4486.12
4478.94
4471.72
4464.45
4457.13
4449.78
4442.39
4434.97
4427.52
4420.04
4412.55
4405.03
4397.5
4389.97
4382.42
4374.87
4367.32
4359.77
4352.23
4344.7
4337.19
4329.68
4322.2
4314.75
4307.32
4299.91
4292.54
4285.2
4277.9
4270.63
4263.39
4256.18
4249
4241.86
4234.75
4227.67
4220.63
4213.62
4206.65
4199.71
4192.82
4185.96
4179.14
4172.36
4165.61
4158.91
4152.24
4145.61
4139.02
4132.48
4125.98
4119.54
4113.14
4106.8
4100.51
4094.27
4088.09
4081.97
4075.9
4069.89
4063.94
4058.04
4052.19
4046.4
4040.66
4034.97
4029.33
4023.73
4018.18
4012.66
4007.18
4001.72
3996.27
3990.79
3985.67
3976.73
3971.7
3966.53
3961.56
3956.74
3952.03
3947.43
3942.93
3938.51
3934.18
3929.93
3925.76
3921.67
3917.65
3913.71
3909.83
3906.03
3902.29
3898.62
3895.01
3891.47
3887.99
3884.57
3881.22
3877.93
3874.69
3871.52
3868.4
3865.34
3862.34
3859.39
3856.49
3853.65
3850.86
3848.13
3845.44
3842.81
3840.22
3837.68
3835.2
3832.75
3830.36
3828.01
3825.7
3823.44
3821.23
3819.05
3816.92
3814.83
3812.78
3810.77
3808.8
3806.86
3804.97
3803.11
3801.29
3799.51
3797.76
3796.04
3794.36
3792.71
3791.1
3789.52
3787.97
3786.45
3784.98
3783.42
3782
3780.61
3779.24
3777.89
3776.58
3775.29
3774.03
3772.79
3771.58
3770.4
3769.23
3768.1
3766.98
3765.89
3764.82
3763.77
3762.75
3761.74
3760.76
3759.8
3758.85
3757.93
3757.02
3756.14
3755.27
3754.42
3753.59
3752.78
3751.98
3751.2
3750.44
3749.69
3748.96
3748.24
3747.54
3746.85
3746.18
3745.52
3744.88
3744.25
3743.63
3743.03
3742.44
3741.86
3741.29
3740.74
3740.2
3739.67
3739.15
3738.64
3738.14
3737.66
3737.18
3736.71
3736.26
3735.81
3735.37
3734.95
3734.53
3734.12
3733.72
3733.33
3732.94
3732.57
3732.2
3731.84
3731.49
3731.15
3730.81
3730.48
3730.16
3729.84
3729.54
3729.23
3728.94
3728.65
3728.37
3728.09
3727.82
3727.56
3727.3
3727.05
3726.8
3726.56
3726.32
3726.09
3725.87
3725.64
3725.43
3725.22
3725.01
3724.81
3724.61
3724.42
3724.23
3724.04
3723.86
3723.69
3723.51
3723.34
3723.18
3723.02
3722.86
3722.71
3722.56
3722.41
3722.26
3722.12
3721.99
3721.85
3721.72
3721.59
3721.47
3721.35
3721.23
3721.11
3720.99
3720.88
3720.77
3720.67
3720.56
3720.46
3720.36
3720.27
3720.17
3720.08
3719.99
3719.9
3719.82
3719.73
3719.65
3719.57
3719.49
3719.42
3719.34
3719.27
3719.2
3719.13
3719.06
3719
3718.93
3718.87
3718.81
3718.75
3718.69
3718.64
3718.58
3718.53
3718.48
3718.43
3718.38
3718.33
3718.28
3718.23
3718.19
3718.14
3718.1
3718.06
3718.02
3717.98
3717.94
3717.9
3717.86
3717.83
3717.79
3717.76
3717.73
3717.7
3717.66
3717.63
3717.61
3717.58
3717.55
3717.52
3717.5
3717.47
3717.45
3717.43
3717.4
3717.38
3717.36
3717.34
3717.32
3717.31
3717.29
3717.27
3717.26
3717.24
3717.23
3717.22
3717.21
3717.2
3717.19
3717.18
3717.17
3717.16
3717.16
3717.15
3717.15
3717.15
3717.14
3717.14
3717.14
3717.14
3717.14
3717.15
3717.15
3717.16
3717.16
3717.16
3717.17
3717.19
3717.19
3717.2
3717.21
3717.23
3717.24
3717.26
3717.28
3717.3
3717.32
3717.34
3717.36
3717.39
3717.41
3717.44
3717.47
3717.5
3717.53
3717.57
3717.6
3717.64
3717.68
3717.72
3717.76
3717.8
3717.85
3717.89
3717.94
3717.99
3718.05
3718.1
3718.16
3718.22
3718.28
3718.34
3718.41
3718.47
3718.54
3718.62
3718.69
3718.77
3718.85
3718.93
3719.01
3719.1
3719.19
3719.28
3719.37
3719.47
3719.57
3719.68
3719.78
3719.89
3720
3720.11
3720.22
3720.34
3720.46
3720.59
3720.71
3720.84
3720.97
3721.11
3721.24
3721.38
3721.53
3721.67
3721.82
3721.97
3722.12
3722.28
3722.44
3722.59
3722.76
3722.92
3723.08
3723.25
3723.41
3723.58
3723.75
3723.92
3724.09
3724.26
3724.43
3724.6
3724.77
3724.93
3725.1
3725.26
3725.42
3725.58
3725.73
3725.88
3726.02
3726.16
3726.29
3726.42
3726.54
3726.65
3726.76
3726.85
3726.93
3727.01
3727.07
3727.12
3727.15
3727.18
3727.18
3727.18
3727.16
3727.12
3727.07
3727.01
3726.91
3726.8
3726.67
3726.52
3726.35
3726.17
3725.96
3725.74
3725.5
3725.24
3724.97
3724.68
3724.36
3724.04
3723.7
3723.34
3722.97
3722.59
3722.2
3721.8
3721.4
3720.98
3720.57
3720.15
3719.72
3719.3
3718.88
3718.46
3718.05
3717.64
3717.24
3716.86
3716.48
3716.11
3715.76
3715.42
3715.1
3714.79
3714.51
3714.24
3713.99
3713.76
3713.55
3713.37
3713.2
3713.06
3712.95
3712.85
3712.78
3712.73
3712.71
3712.71
3712.73
3712.78
3712.85
3712.95
3713.07
3713.21
3713.38
3713.58
3713.79
3714.03
3714.29
3714.57
3714.88
3715.2
3715.54
3715.9
3716.28
3716.67
3717.08
3717.51
3717.95
3718.4
3718.86
3719.33
3719.81
3720.29
3720.79
3721.28
3721.78
3722.29
3722.79
3723.29
3723.79
3724.3
3724.79
3725.29
3725.78
3726.26
3726.74
3727.21
3727.67
3728.13
3728.59
3729.03
3729.47
3729.9
3730.32
3730.74
3731.16
3731.56
3731.97
3732.36
3732.76
3733.15
3733.54
3733.93
3734.31
3734.7
3735.09
3735.47
3735.85
3736.24
3736.63
3737.01
3737.4
3737.79
3738.17
3738.56
3738.94
3739.32
3739.7
3740.07
3740.44
3740.8
3741.15
3741.5
3741.83
3742.14
3742.45
3742.73
3743
3743.24
3743.46
3743.66
3743.83
3743.97
3744.08
3744.16
3744.2
3744.21
3744.18
3744.11
3744
3743.83
3743.62
3743.37
3743.07
3742.73
3742.33
3741.88
3741.39
3740.84
3740.24
3739.59
3738.89
3738.13
3737.33
3736.48
3735.57
3734.62
3733.62
3732.58
3731.49
3730.36
3729.18
3727.97
3726.72
3725.44
3724.12
3722.77
3721.39
3719.99
3718.57
3717.13
3715.67
3714.2
3712.72
3711.23
3709.75
3708.26
3706.78
3705.31
3703.86
3702.42
3701
3699.61
3698.25
3696.92
3695.62
3694.37
3693.17
3692.01
3690.9
3689.84
3688.85
3687.91
3687.03
3686.22
3685.48
3684.8
3684.19
3683.65
3683.18
3682.79
3682.46
3682.2
3682.01
3681.89
3681.83
3681.84
3681.91
3682.05
3682.24
3682.48
3682.78
3683.12
3683.51
3683.93
3684.4
3684.9
3685.44
3686
3686.59
3687.2
3687.83
3688.48
3689.14
3689.81
3690.48
3691.17
3691.85
3692.54
3693.22
3693.9
3694.58
3695.24
3695.9
3696.55
3697.19
3697.82
3698.44
3699.04
3699.62
3700.2
3700.76
3701.3
3701.83
3702.34
3702.84
3703.32
3703.79
3704.24
3704.68
3705.1
3705.51
3705.9
3706.29
3706.66
3707.02
3707.36
3707.7
3708.03
3708.35
3708.66
3708.96
3709.26
3709.56
3709.85
3710.13
3710.42
3710.71
3711
3711.29
3711.59
3711.89
3712.2
3712.52
3712.85
3713.2
3713.55
3713.93
3714.32
3714.73
3715.16
3715.61
3716.09
3716.6
3717.13
3717.69
3718.27
3718.89
3719.55
3720.23
3720.95
3721.71
3722.5
3723.33
3724.19
3725.1
3726.04
3727.02
3728.04
3729.1
3730.19
3731.32
3732.49
3733.7
3734.95
3736.23
3737.55
3738.91
3740.3
3741.72
3743.18
3744.67
3746.19
3747.74
3749.31
3750.92
3752.56
3754.22
3755.91
3757.62
3759.36
3761.12
3762.91
3764.72
3766.55
3768.4
3770.28
3772.18
3774.1
3776.04
3778.01
3780
3782.01
3784.05
3786.11
3788.2
3790.32
3792.46
3794.63
3796.84
3799.07
3801.34
3803.64
3805.97
3808.35
3810.76
3813.21
3815.7
3818.24
3820.81
3823.44
3826.11
3828.83
3831.61
3834.43
3837.31
3840.24
3843.23
3846.28
3849.38
3852.55
3855.77
3859.06
3862.41
3865.82
3869.29
3872.84
3876.44
3880.11
3883.85
3887.65
3891.52
3895.46
3899.46
3903.53
3907.67
3911.87
3916.14
3920.48
3924.88
3929.35
3933.89
3938.49
3943.16
3947.89
3952.69
3957.55
3962.48
3967.47
3972.53
3977.65
3982.83
3988.08
3993.39
3998.76
4004.19
4009.69
4015.24
4020.86
4026.53
4032.27
4038.06
4043.92
4049.83
4055.8
4061.83
4067.91
4074.05
4080.25
4086.51
4092.81
4099.18
4105.6
4112.07
4118.59
4125.17
4131.8
4138.47
4145.2
4151.97
4158.8
4165.66
4172.58
4179.53
4186.53
4193.58
4200.66
4207.78
4214.94
4222.13
4229.36
4236.62
4243.91
4251.24
4258.58
4265.96
4273.36
4280.78
4288.22
4295.68
4303.15
4310.63
4318.13
4325.63
4333.14
4340.65
4348.16
4355.67
4363.17
4370.67
4378.15
4385.62
4393.07
4400.51
4407.92
4415.31
4422.67
4430
4437.29
4444.55
4451.77
4458.94
4466.08
4473.16
4480.18
4487.16
4494.08
4500.94
4507.74
4514.48
4521.15
4527.74
4534.27
4540.72
4547.09
4553.38
4559.59
4565.71
4571.75
4577.69
4583.54
4589.3
4594.97
4600.53
4605.99
4611.35
4616.61
4621.75
4626.79
4631.72
4636.53
4641.23
4645.81
4650.27
4654.61
4658.83
4662.92
4666.88
4670.72
4674.43
4678.01
4681.45
4684.76
4687.94
4690.97
4693.86
4696.62
4699.23
4701.69
4704.01
4706.19
4708.21
4710.08
4711.8
4713.37
4714.78
4716.04
4717.13
4718.06
4718.83
4719.44
4719.87
4720.14
4720.23
4720.17
4719.98
4719.59
4719.03
4718.3
4717.4
4716.32
4715.07
4713.64
4712.04
4710.25
4708.29
4706.16
4703.84
4701.35
4698.68
4695.83
4692.8
4689.6
4686.23
4682.68
4678.96
4675.07
4671.01
4666.78
4662.39
4657.84
4653.12
4648.25
4643.23
4638.06
4632.74
4627.27
4621.67
4615.94
4610.07
4604.08
4597.97
4591.74
4585.39
4578.95
4572.4
4565.75
4559.01
4552.19
4545.28
4538.31
4531.26
4524.15
4516.97
4509.75
4502.47
4495.16
4487.8
4480.41
4472.99
4465.55
4458.08
4450.61
4443.12
4435.62
4428.12
4420.62
4413.12
4405.63
4398.15
4390.68
4383.23
4375.8
4368.38
4360.99
4353.63
4346.29
4338.98
4331.7
4324.46
4317.24
4310.06
4302.92
4295.81
4288.74
4281.72
4274.73
4267.78
4260.87
4254
4247.18
4240.4
4233.67
4226.98
4220.34
4213.75
4207.21
4200.71
4194.27
4187.87
4181.53
4175.24
4169.01
4162.84
4156.72
4150.66
4144.66
4138.73
4132.86
4127.05
4121.31
4115.63
4110.02
4104.49
4099.02
4093.63
4088.3
4083.05
4077.88
4072.78
4067.75
4062.8
4057.92
4053.12
4048.4
4043.75
4039.17
4034.66
4030.23
4025.87
4021.58
4017.36
4013.2
4009.11
4005.09
4001.13
3997.23
3993.38
3989.6
3985.89
3982.21
3978.58
3975
3971.47
3967.99
3964.55
3961.15
3957.79
3954.47
3951.18
3947.92
3944.7
3941.51
3938.34
3935.21
3932.09
3929
3925.94
3922.89
3919.87
3916.86
3913.87
3910.9
3907.95
3905.01
3902.08
3899.17
3896.28
3893.39
3890.52
3887.67
3884.82
3881.99
3879.17
3876.36
3873.56
3870.78
3868.01
3865.26
3862.52
3859.8
3857.09
3854.4
3851.72
3849.07
3846.43
3843.81
3841.22
3838.64
3836.09
3833.56
3831.06
3828.58
3826.13
3823.7
3821.31
3818.94
3816.6
3814.3
3812.02
3809.78
3807.57
3805.4
3803.26
3801.15
3799.08
3797.04
3795.04
3793.07
3791.14
3789.24
3787.38
3785.55
3783.76
3782
3780.28
3778.59
3776.93
3775.3
3773.71
3772.15
3770.61
3769.11
3767.63
3766.18
3764.76
3763.37
3762
3760.66
3759.34
3758.05
3756.78
3755.53
3754.31
3753.11
3751.93
3750.77
3749.64
3748.52
3747.43
3746.36
3745.3
3744.27
3743.26
3742.28
3741.31
3740.36
3739.44
3738.53
3737.65
3736.79
3735.95
3735.14
3734.35
3733.57
3732.83
3732.1
3731.4
3730.71
3730.05
3729.42
3728.8
3728.21
3727.64
3727.09
3726.56
3726.05
3725.56
3725.08
3724.63
3724.19
3723.78
3723.37
3722.98
3722.61
3722.25
3721.9
3721.56
3721.23
3720.92
3720.61
3720.31
3720.01
3719.72
3719.44
3719.16
3718.88
3718.61
3718.34
3718.07
3717.8
3717.53
3717.26
3717
3716.73
3716.46
3716.19
3715.92
3715.65
3715.38
3715.11
3714.84
3714.56
3714.29
3714.02
3713.74
3713.47
3713.19
3712.92
3712.64
3712.37
3712.1
3711.82
3711.55
3711.28
3711.01
3710.73
3710.46
3710.19
3709.91
3709.63
3709.35
3709.06
3708.77
3708.48
3708.17
3707.86
3707.54
3707.21
3706.87
3706.52
3706.15
3705.77
3705.37
3704.96
3704.53
3704.08
3703.61
3703.12
3702.61
3702.09
3701.54
3700.97
3700.37
3699.76
3699.13
3698.48
3697.81
3697.12
3696.42
3695.71
3694.98
3694.24
3693.5
3692.75
3691.99
3691.24
3690.49
3689.75
3689.02
3688.31
3687.61
3686.94
3686.28
3685.66
3685.07
3684.52
3684.01
3683.54
3683.12
3682.75
3682.43
3682.17
3681.98
3681.84
3681.77
3681.77
3681.83
3681.97
3682.18
3682.46
3682.82
3683.26
3683.76
3684.34
3685
3685.73
3686.53
3687.4
3688.34
3689.34
3690.42
3691.55
3692.75
3694
3695.31
3696.68
3698.09
3699.54
3701.04
3702.57
3704.15
3705.75
3707.38
3709.03
3710.7
3712.39
3714.09
3715.8
3717.51
3719.22
3720.94
3722.64
3724.34
3726.02
3727.69
3729.34
3730.97
3732.57
3734.15
3735.69
3737.2
3738.68
3740.12
3741.52
3742.88
3744.2
3745.47
3746.7
3747.87
3749
3750.07
3751.1
3752.06
3752.98
3753.83
3754.63
3755.37
3756.05
3756.68
3757.24
3757.74
3758.18
3758.56
3758.88
3759.14
3759.34
3759.48
3759.56
3759.57
3759.53
3759.43
3759.28
3759.06
3758.79
3758.46
3758.08
3757.64
3757.15
3756.6
3756.01
3755.37
3754.69
3753.96
3753.2
3752.39
3751.55
3750.67
3749.76
3748.83
3747.87
3746.88
3745.87
3744.85
3743.81
3742.75
3741.69
3740.62
3739.54
3738.46
3737.38
3736.31
3735.24
3734.17
3733.12
3732.07
3731.04
3730.03
3729.03
3728.05
3727.09
3726.15
3725.23
3724.34
3723.47
3722.63
3721.81
3721.01
3720.25
3719.51
3718.8
3718.12
3717.46
3716.84
3716.24
3715.67
3715.12
3714.61
3714.12
3713.66
3713.23
3712.82
3712.44
3712.08
3711.76
3711.45
3711.18
3710.93
3710.7
3710.5
3710.33
3710.18
3710.05
3709.95
3709.87
3709.82
3709.79
3709.77
3709.79
3709.82
3709.87
3709.94
3710.02
3710.13
3710.25
3710.39
3710.54
3710.71
3710.88
3711.07
3711.28
3711.48
3711.7
3711.93
3712.16
3712.39
3712.62
3712.86
3713.1
3713.33
3713.57
3713.8
3714.02
3714.24
3714.45
3714.65
3714.85
3715.03
3715.2
3715.36
3715.51
3715.65
3715.77
3715.88
3715.97
3716.04
3716.1
3716.15
3716.17
3716.18
3716.18
3716.15
3716.11
3716.05
3715.97
3715.87
3715.75
3715.61
3715.45
3715.27
3715.07
3714.84
3714.6
3714.34
3714.06
3713.75
3713.43
3713.09
3712.72
3712.34
3711.94
3711.52
3711.08
3710.63
3710.16
3709.68
3709.19
3708.68
3708.16
3707.63
3707.1
3706.56
3706.01
3705.46
3704.91
3704.36
3703.81
3703.27
3702.73
3702.2
3701.67
3701.16
3700.66
3700.18
3699.71
3699.25
3698.82
3698.4
3698
3697.62
3697.26
3696.93
3696.62
3696.33
3696.06
3695.82
3695.6
3695.4
3695.23
3695.08
3694.96
3694.85
3694.77
3694.71
3694.67
3694.64
3694.64
3694.65
3694.68
3694.72
3694.78
3694.85
3694.94
3695.03
3695.14
3695.25
3695.38
3695.51
3695.64
3695.78
3695.93
3696.07
3696.22
3696.37
3696.52
3696.66
3696.81
3696.95
3697.09
3697.22
3697.35
3697.47
3697.59
3697.69
3697.79
3697.88
3697.96
3698.03
3698.1
3698.15
3698.19
3698.22
3698.24
3698.24
3698.24
3698.22
3698.19
3698.15
3698.1
3698.03
3697.96
3697.87
3697.78
3697.67
3697.55
3697.43
3697.29
3697.15
3697.01
3696.85
3696.7
3696.54
3696.37
3696.21
3696.04
3695.88
3695.71
3695.55
3695.4
3695.24
3695.1
3694.96
3694.83
3694.72
3694.61
3694.51
3694.43
3694.36
3694.31
3694.28
3694.26
3694.25
3694.27
3694.31
3694.37
3694.45
3694.55
3694.68
3694.84
3695.01
3695.21
3695.44
3695.68
3695.96
3696.25
3696.57
3696.92
3697.29
3697.68
3698.1
3698.54
3699
3699.48
3699.98
3700.51
3701.05
3701.62
3702.2
3702.79
3703.4
3704.03
3704.67
3705.31
3705.97
3706.64
3707.31
3707.99
3708.67
3709.35
3710.04
3710.72
3711.4
3712.08
3712.75
3713.42
3714.07
3714.72
3715.36
3715.98
3716.6
3717.2
3717.78
3718.35
3718.9
3719.44
3719.96
3720.46
3720.94
3721.4
3721.85
3722.27
3722.68
3723.06
3723.42
3723.76
3724.08
3724.38
3724.66
3724.92
3725.16
3725.38
3725.59
3725.77
3725.94
3726.09
3726.23
3726.35
3726.45
3726.54
3726.62
3726.69
3726.75
3726.8
3726.84
3726.87
3726.9
3726.92
3726.94
3726.96
3726.98
3727
3727.02
3727.05
3727.08
3727.11
3727.16
3727.22
3727.28
3727.36
3727.46
3727.57
3727.7
3727.84
3728.01
3728.2
3728.42
3728.67
3728.94
3729.24
3729.57
3729.94
3730.35
3730.79
3731.27
3731.79
3732.35
3732.96
3733.62
3734.32
3735.07
3735.87
3736.73
3737.63
3738.6
3739.61
3740.69
3741.82
3743.01
3744.25
3745.56
3746.92
3748.34
3749.82
3751.36
3752.96
3754.62
3756.34
3758.11
3759.94
3761.82
3763.76
3765.76
3767.8
3769.9
3772.05
3774.24
3776.48
3778.77
3781.1
3783.47
3785.88
3788.33
3790.82
3793.34
3795.89
3798.47
3801.08
3803.7
3806.36
3809.03
3811.72
3814.42
3817.14
3819.88
3822.62
3825.37
3828.13
3830.89
3833.66
3836.43
3839.2
3841.97
3844.74
3847.51
3850.28
3853.05
3855.82
3858.58
3861.34
3864.1
3866.87
3869.63
3872.39
3875.16
3877.93
3880.71
3883.49
3886.29
3889.09
3891.91
3894.74
3897.59
3900.45
3903.34
3906.26
3909.2
3912.17
3915.17
3918.21
3921.28
3924.4
3927.55
3930.76
3934
3937.3
3940.66
3944.06
3947.52
3951.05
3954.63
3958.28
3962
3965.78
3969.64
3973.57
3977.57
3981.64
3985.79
3990.02
3994.33
3998.72
4003.19
4007.75
4012.39
4017.11
4021.93
4026.82
4031.8
4036.86
4042.01
4047.24
4052.56
4057.96
4063.45
4069.02
4074.67
4080.4
4086.21
4092.1
4098.08
4104.13
4110.25
4116.46
4122.74
4129.09
4135.51
4142.01
4148.57
4155.2
4161.9
4168.66
4175.48
4182.36
4189.3
4196.3
4203.35
4210.46
4217.62
4224.82
4232.07
4239.36
4246.7
4254.07
4261.48
4268.92
4276.39
4283.89
4291.42
4298.97
4306.54
4314.13
4321.74
4329.36
4336.99
4344.62
4352.26
4359.9
4367.54
4375.18
4382.81
4390.43
4398.03
4405.62
4413.19
4420.73
4428.25
4435.74
4443.2
4450.62
4458
4465.34
4472.63
4479.88
4487.07
4494.21
4501.29
4508.31
4515.27
4522.16
4528.97
4535.72
4542.38
4548.97
4555.47
4561.88
4568.21
4574.45
4580.59
4586.63
4592.58
4598.42
4604.16
4609.79
4615.31
4620.72
4626
4631.18
4636.23
4641.15
4645.96
4650.63
4655.17
4659.58
4663.86
4668
4672
4675.85
4679.57
4683.13
4686.55
4689.82
4692.94
4695.9
4698.7
4701.35
4703.85
4706.18
4708.35
4710.35
4712.2
4713.88
4715.39
4716.74
4717.94
4719
4719.92
4720.72
4721.39
4721.93
4722.43
4722.86
4723.88
4723.16
4717.85
4713.01
4708.72
4704.44
4700.04
4695.49
4690.81
4686
4681.04
4675.91
4670.63
4665.2
4659.62
4653.87
4647.98
4641.95
4635.77
4629.44
4622.97
4616.36
4609.61
4602.73
4595.72
4588.58
4581.31
4573.92
4566.41
4558.78
4551.04
4543.2
4535.24
4527.19
4519.03
4510.78
4502.44
4494.01
4485.49
4476.89
4468.21
4459.46
4450.63
4441.74
4432.77
4423.75
4414.66
4405.52
4396.32
4387.08
4377.78
4368.43
4359.04
4349.61
4340.14
4330.63
4321.08
4311.5
4301.89
4292.25
4282.58
4272.88
4263.16
4253.42
4243.65
4233.87
4224.07
4214.25
4204.41
4194.57
4184.71
4174.84
4164.97
4155.08
4145.19
4135.3
4125.41
4115.51
4105.62
4095.72
4085.84
4075.96
4066.08
4056.22
4046.37
4036.53
4026.7
4016.89
4007.1
3997.32
3987.57
3977.83
3968.12
3958.44
3948.78
3939.15
3929.54
3919.96
3910.41
3900.9
3891.41
3881.96
3872.54
3863.15
3853.8
3844.48
3835.19
3825.95
3816.73
3807.55
3798.41
3789.3
3780.24
3771.2
3762.21
3753.25
3744.33
3735.45
3726.61
3717.81
3709.05
3700.33
3691.65
3683.01
3674.42
3665.87
3657.37
3648.91
3640.5
3632.14
3623.83
3615.58
3607.38
3599.23
3591.13
3583.09
3575.11
3567.19
3559.33
3551.56
3543.82
3536.15
3528.55
3521.01
3513.55
3506.15
3498.83
3491.58
3484.4
3477.3
3470.27
3463.32
3456.45
3449.66
3442.95
3436.31
3429.76
3423.29
3416.9
3410.6
3404.38
3398.24
3392.18
3386.22
3380.33
3374.53
3368.82
3363.2
3357.66
3352.2
3346.83
3341.55
3336.35
3331.24
3326.21
3321.27
3316.4
3311.62
3306.92
3302.3
3297.76
3293.3
3288.91
3284.59
3280.34
3276.17
3272.05
3268.01
3264.02
3260.09
3256.22
3252.4
3248.63
3244.91
3241.23
3237.59
3233.98
3230.41
3226.86
3223.34
3219.84
3216.36
3212.9
3209.44
3205.99
3202.55
3199.11
3195.67
3192.22
3188.76
3185.29
3181.81
3178.32
3174.8
3171.27
3167.71
3164.13
3160.53
3156.89
3153.23
3149.54
3145.81
3142.06
3138.27
3134.45
3130.59
3126.7
3122.78
3118.83
3114.84
3110.81
3106.76
3102.69
3098.58
3094.44
3090.28
3086.09
3081.89
3077.66
3073.42
3069.16
3064.89
3060.61
3056.33
3052.04
3047.75
3043.47
3039.19
3034.93
3030.68
3026.45
3022.23
3018.04
3013.88
3009.75
3005.66
3001.6
2997.58
2993.6
2989.67
2985.78
2981.94
2978.16
2974.42
2970.75
2967.12
2963.56
2960.05
2956.61
2953.22
2949.89
2946.61
2943.4
2940.25
2937.15
2934.11
2931.12
2928.19
2925.3
2922.47
2919.68
2916.94
2914.24
2911.58
2908.96
2906.37
2903.81
2901.28
2898.78
2896.3
2893.84
2891.4
2888.96
2886.54
2884.13
2881.72
2879.31
2876.89
2874.47
2872.05
2869.61
2867.16
2864.69
2862.2
2859.69
2857.16
2854.61
2852.03
2849.42
2846.79
2844.12
2841.43
2838.71
2835.95
2833.17
2830.35
2827.51
2824.63
2821.73
2818.79
2815.82
2812.82
2809.8
2806.75
2803.68
2800.59
2797.49
2794.36
2791.22
2788.07
2784.91
2781.74
2778.57
2775.4
2772.23
2769.06
2765.91
2762.76
2759.63
2756.51
2753.42
2750.35
2747.31
2744.3
2741.32
2738.37
2735.46
2732.6
2729.78
2727
2724.28
2721.6
2718.97
2716.4
2713.88
2711.42
2709.01
2706.66
2704.36
2702.13
2699.95
2697.83
2695.76
2693.75
2691.8
2689.89
2688.04
2686.25
2684.5
2682.8
2681.14
2679.53
2677.96
2676.43
2674.94
2673.48
2672.06
2670.66
2669.29
2667.94
2666.61
2665.3
2663.99
2662.7
2661.42
2660.14
2658.85
2657.57
2656.27
2654.97
2653.65
2652.32
2650.97
2649.6
2648.2
2646.78
2645.33
2643.85
2642.34
2640.79
2639.22
2637.61
2635.96
2634.29
2632.57
2630.82
2629.04
2627.22
2625.38
2623.49
2621.58
2619.64
2617.67
2615.67
2613.65
2611.6
2609.53
2607.43
2605.32
2603.19
2601.05
2598.88
2596.71
2594.52
2592.32
2590.11
2587.89
2585.67
2583.43
2581.19
2578.94
2576.68
2574.41
2572.14
2569.86
2567.57
2565.27
2562.95
2560.63
2558.29
2555.94
2553.57
2551.18
2548.77
2546.34
2543.89
2541.41
2538.9
2536.37
2533.79
2531.18
2528.54
2525.86
2523.15
2520.39
2517.58
2514.73
2511.84
2508.9
2505.91
2502.87
2499.78
2496.63
2493.44
2490.2
2486.9
2483.56
2480.16
2476.72
2473.22
2469.68
2466.1
2462.47
2458.79
2455.08
2451.34
2447.56
2443.75
2439.91
2436.05
2432.17
2428.27
2424.37
2420.46
2416.54
2412.63
2408.73
2404.84
2400.97
2397.11
2393.28
2389.48
2385.71
2381.98
2378.29
2374.63
2371.03
2367.46
2363.95
2360.49
2357.08
2353.72
2350.42
2347.16
2343.96
2340.81
2337.71
2334.66
2331.66
2328.71
2325.8
2322.94
2320.12
2317.33
2314.59
2311.88
2309.2
2306.56
2303.94
2301.36
2298.79
2296.26
2293.75
2291.26
2288.79
2286.34
2283.91
2281.5
2279.11
2276.73
2274.37
2272.03
2269.7
2267.38
2265.07
2262.78
2260.5
2258.23
2255.96
2253.71
2251.46
2249.22
2246.98
2244.74
2242.51
2240.28
2238.05
2235.82
2233.59
2231.36
2229.12
2226.88
2224.64
2222.39
2220.13
2217.87
2215.6
2213.31
2211.02
2208.71
2206.39
2204.05
2201.69
2199.32
2196.92
2194.5
2192.06
2189.6
2187.1
2184.58
2182.02
2179.44
2176.82
2174.17
2171.47
2168.74
2165.97
2163.16
2160.3
2157.41
2154.46
2151.48
2148.44
2145.37
2142.24
2139.07
2135.85
2132.58
2129.27
2125.92
2122.51
2119.07
2115.58
2112.05
2108.48
2104.88
2101.23
2097.56
2093.85
2090.12
2086.36
2082.58
2078.78
2074.96
2071.14
2067.31
2063.47
2059.65
2055.83
2052.02
2048.23
2044.47
2040.74
2037.04
2033.39
2029.78
2026.22
2022.73
2019.29
2015.92
2012.63
2009.42
2006.29
2003.24
2000.29
1997.42
1994.66
1992
1989.44
1986.98
1984.63
1982.39
1980.26
1978.25
1976.34
1974.55
1972.87
1971.3
1969.85
1968.51
1967.29
1966.17
1965.16
1964.27
1963.48
1962.8
1962.23
1961.76
1961.39
1961.13
1960.96
1960.89
1960.91
1961.02
1961.23
1961.52
1961.88
1962.34
1962.87
1963.48
1964.16
1964.91
1965.73
1966.61
1967.54
1968.52
1969.55
1970.61
1971.71
1972.84
1973.99
1975.16
1976.33
1977.51
1978.68
1979.84
1980.99
1982.12
1983.22
1984.29
1985.32
1986.32
1987.26
1988.16
1988.99
1989.77
1990.49
1991.14
1991.72
1992.23
1992.66
1993.02
1993.29
1993.48
1993.58
1993.59
1993.51
1993.35
1993.09
1992.74
1992.31
1991.77
1991.14
1990.42
1989.6
1988.7
1987.72
1986.64
1985.48
1984.24
1982.92
1981.52
1980.05
1978.51
1976.9
1975.24
1973.51
1971.74
1969.92
1968.05
1966.15
1964.22
1962.26
1960.29
1958.3
1956.3
1954.29
1952.29
1950.3
1948.32
1946.35
1944.41
1942.49
1940.6
1938.74
1936.91
1935.12
1933.37
1931.66
1929.99
1928.36
1926.77
1925.23
1923.73
1922.27
1920.85
1919.47
1918.13
1916.83
1915.57
1914.33
1913.13
1911.97
1910.83
1909.71
1908.63
1907.56
1906.52
1905.5
1904.5
1903.51
1902.54
1901.59
1900.65
1899.72
1898.81
1897.92
1897.03
1896.16
1895.31
1894.47
1893.64
1892.84
1892.05
1891.28
1890.54
1889.82
1889.13
1888.47
1887.84
1887.24
1886.68
1886.15
1885.66
1885.22
1884.81
1884.44
1884.11
1883.82
1883.56
1883.35
1883.17
1883.02
1882.91
1882.82
1882.76
1882.71
1882.69
1882.69
1882.69
1882.71
1882.73
1882.74
1882.76
1882.77
1882.78
1882.77
1882.75
1882.71
1882.66
1882.58
1882.48
1882.36
1882.21
1882.04
1881.83
1881.6
1881.33
1881.04
1880.71
1880.35
1879.96
1879.54
1879.09
1878.61
1878.1
1877.55
1876.98
1876.38
1875.76
1875.11
1874.44
1873.75
1873.05
1872.33
1871.61
1870.87
1870.13
1869.39
1868.64
1867.9
1867.16
1866.44
1865.72
1865.02
1864.33
1863.66
1863.01
1862.38
1861.77
1861.18
1860.6
1860.05
1859.51
1858.99
1858.48
1858
1857.53
1857.07
1856.62
1856.18
1855.75
1855.32
1854.9
1854.48
1854.06
1853.63
1853.2
1852.76
1852.31
1851.85
1851.38
1850.89
1850.38
1849.85
1849.29
1848.72
1848.12
1847.49
1846.83
1846.15
1845.43
1844.68
1843.9
1843.08
1842.22
1841.33
1840.41
1839.44
1838.44
1837.39
1836.31
1835.19
1834.03
1832.83
1831.59
1830.31
1828.99
1827.63
1826.24
1824.81
1823.34
1821.84
1820.3
1818.72
1817.11
1815.46
1813.78
1812.07
1810.33
1808.55
1806.74
1804.9
1803.03
1801.13
1799.2
1797.24
1795.26
1793.25
1791.21
1789.14
1787.05
1784.94
1782.81
1780.65
1778.47
1776.27
1774.06
1771.82
1769.57
1767.3
1765.02
1762.74
1760.44
1758.13
1755.83
1753.52
1751.21
1748.91
1746.62
1744.34
1742.07
1739.81
1737.58
1735.38
1733.21
1731.06
1728.95
1726.88
1724.86
1722.88
1720.96
1719.09
1717.28
1715.54
1713.86
1712.25
1710.72
1709.27
1707.9
1706.63
1705.43
1704.33
1703.33
1702.42
1701.62
1700.91
1700.31
1699.81
1699.42
1699.13
1698.95
1698.89
1698.91
1699.06
1699.32
1699.7
1700.18
1700.77
1701.48
1702.28
1703.2
1704.24
1705.42
1706.69
1708.09
1709.6
1711.21
1712.93
1714.76
1716.7
1718.74
1720.9
1723.17
1725.55
1728.02
1730.59
1733.27
1736.03
1738.88
1741.82
1744.85
1747.92
1751.05
1754.24
1757.47
1760.72
1763.99
1767.26
1770.53
1773.79
1777.03
1780.24
1783.38
1786.46
1789.46
1792.37
1795.17
1797.83
1800.37
1802.81
1805.15
1807.4
1809.56
1811.62
1813.57
1815.43
1817.17
1818.79
1820.26
1821.6
1822.84
1823.96
1824.96
1825.84
1826.59
1827.21
1827.69
1828.03
1828.22
1828.27
1828.18
1827.93
1827.5
1826.95
1826.2
1825.25
1824.01
1822.49
1820.72
1818.66
1816.23
1813.33
1810
1806.31
1802.33
1798.18
1793.95
1789.63
1785.16
1780.67
1776.5
1772.9
1770.08
1768.27
1767.68
1768.43
1770.63
1774.35
1779.6
1786.42
1794.24
1802.76
1811.79
1820.99
1829.71
1837.45
1843.86
1849.16
1853.62
1857.15
1859.72
1861.29
1861.84
1861.3
1859.76
1857.34
1853.98
1850.04
1845.16
1839.61
1833.03
1825.31
1816.54
1807.12
1797.32
1787.38
1777.29
1766.81
1755.62
1743.39
1729.95
1715.94
1701.98
1688.48
1676.38
1666.03
1657.83
1652.21
1649.58
1649.67
1651.8
1655.25
1659.03
1662.27
1664.46
1664.79
1662.96
1658.67
1651.72
1642.11
1629.93
1615.26
1598.17
1578.52
1556.39
1531.91
1505.3
1477.53
1449.07
1418.93
1386.39
1352.62
1318.55
1285.25
1252.85
1221.7
1191.95
1163.51
1136.45
1110.77
1086.4
1063.39
1041.94
1022.23
1003.84
986.463
970.261
955.24
941.254
928.106
915.79
904.369
893.637
883.438
873.699
864.33
855.309
846.762
838.898
831.63
824.559
817.695
811.037
804.487
798.027
791.739
785.685
779.825
774.293
768.911
763.781
758.97
754.147
749.433
744.852
740.422
736.177
732.115
728.285
724.669
721.189
718.192
715.76
713.516
711.373
709.519
707.946
706.605
705.604
704.91
704.356
703.833
703.422
703.208
703.203
703.254
703.283
703.348
703.328
703.244
703.451
704.115
704.539
704.594
704.908
705.014
704.614
703.914
703.13
702.349
701.455
700.308
698.958
697.457
695.881
694.281
692.629
690.922
689.18
687.422
685.643
683.857
682.108
680.438
678.834
677.311
675.926
674.709
673.696