/*--------------------------------*- C++ -*----------------------------------*\
| =========                 |                                                 |
| \\      /  F ield         | OpenFOAM: The Open Source CFD Toolbox           |
|  \\    /   O peration     | Version:  v1812                                 |
|   \\  /    A nd           | Web:      www.OpenFOAM.com                      |
|    \\/     M anipulation  |                                                 |
\*---------------------------------------------------------------------------*/
FoamFile
{
    version     2.0;
    format      ascii;
    class       volScalarField;
    location    "300";
    object      p_rgh;
}
// * * * * * * * * * * * * * * * * * * * * * * * * * * * * * * * * * * * * * //

dimensions      [1 -1 -2 0 0 0 0];


internalField   nonuniform List<scalar> 
366376
(
-227.434
-227.155
-226.887
-226.638
-226.41
-226.204
-226.017
-225.848
-225.693
-225.551
-225.419
-225.295
-225.179
-225.069
-224.964
-224.863
-224.766
-224.671
-224.578
-224.486
-224.395
-224.305
-224.214
-224.122
-224.029
-223.935
-223.84
-223.743
-223.644
-223.545
-223.443
-223.34
-223.235
-223.129
-223.02
-222.91
-222.798
-222.684
-222.568
-222.451
-222.331
-222.21
-222.086
-221.961
-221.834
-221.704
-221.573
-221.44
-221.304
-221.167
-221.027
-220.885
-220.741
-220.595
-220.447
-220.296
-220.143
-219.988
-219.83
-219.67
-219.507
-219.342
-219.175
-219.004
-218.832
-218.656
-218.478
-218.297
-218.114
-217.928
-217.738
-217.546
-217.351
-217.153
-216.953
-216.748
-216.541
-216.331
-216.118
-215.901
-215.681
-215.457
-215.23
-215
-214.766
-214.529
-214.288
-214.043
-213.794
-213.542
-213.285
-213.025
-212.761
-212.492
-212.22
-211.943
-211.661
-211.376
-211.085
-210.79
-210.491
-210.187
-209.877
-209.563
-209.244
-208.92
-208.59
-208.255
-207.914
-207.568
-207.216
-206.858
-206.494
-206.124
-205.748
-205.366
-204.977
-204.581
-204.178
-203.769
-203.352
-202.928
-202.496
-202.056
-201.609
-201.154
-200.69
-200.218
-199.737
-199.247
-198.748
-198.24
-197.722
-197.195
-196.657
-196.109
-195.55
-194.981
-194.4
-193.809
-193.205
-192.589
-191.962
-191.321
-190.668
-190.002
-189.322
-188.628
-187.919
-187.197
-186.459
-185.706
-184.937
-184.152
-183.35
-182.532
-181.695
-180.841
-179.967
-179.074
-178.16
-177.223
-176.264
-175.279
-174.268
-173.23
-172.164
-171.068
-169.943
-168.786
-167.598
-166.377
-165.123
-163.835
-162.512
-161.154
-159.76
-158.329
-156.862
-155.356
-153.812
-152.229
-150.606
-148.943
-147.238
-145.491
-143.702
-141.869
-139.991
-138.067
-136.098
-134.081
-132.016
-129.901
-127.737
-125.521
-123.253
-120.933
-118.558
-116.129
-113.645
-111.104
-108.507
-105.853
-103.141
-100.372
-97.5454
-94.6622
-91.7232
-88.7299
-85.6849
-82.592
-79.4578
-76.2943
-73.128
-70.02
-67.1612
-64.4809
-68.9634
-67.6896
-65.7873
-63.2542
-60.312
-57.0351
-53.4693
-49.6485
-45.6007
-41.349
-36.9119
-32.3047
-27.5405
-22.6323
-17.5941
-12.4404
-7.1827
-1.82488
3.63487
9.19388
14.8477
20.5916
26.4211
32.3324
38.3217
44.3863
50.5232
56.7294
63.0023
69.3399
75.7425
82.2113
88.7466
95.3486
102.018
108.754
115.556
122.423
129.356
136.354
143.417
150.543
157.732
164.984
172.297
179.671
187.104
194.595
202.144
209.748
217.406
225.117
232.879
240.691
248.551
256.457
264.407
272.4
280.433
288.504
296.612
304.754
312.927
321.13
329.359
337.613
345.889
354.184
362.495
370.82
379.156
387.5
395.849
404.2
412.55
420.895
429.234
437.561
445.875
454.172
462.449
470.701
478.926
487.121
495.281
503.404
511.485
519.521
527.509
535.445
543.325
551.147
558.906
566.599
574.222
581.773
589.247
596.641
603.951
611.173
618.305
625.343
632.282
639.121
645.854
652.48
658.994
665.393
671.674
677.833
683.868
689.774
695.55
701.191
706.694
712.056
717.274
722.343
727.261
732.022
736.622
741.057
745.324
749.419
753.341
757.088
760.658
764.049
767.261
770.293
773.144
775.814
778.301
780.605
782.724
784.659
786.408
788.205
790.179
791.931
793.302
794.424
795.321
796.008
796.495
796.787
796.889
796.801
796.527
796.066
795.422
794.594
793.583
792.392
791.021
789.471
787.743
785.839
783.76
781.508
779.083
776.488
773.725
770.794
767.699
764.44
761.021
757.442
753.707
749.817
745.775
741.584
737.245
732.762
728.138
723.374
718.475
713.442
708.279
702.988
697.574
692.039
686.385
680.618
674.739
668.753
662.662
656.471
650.183
643.801
637.329
630.77
624.128
617.407
610.61
603.741
596.804
589.801
582.738
575.616
568.441
561.216
553.945
546.63
539.276
531.887
524.465
517.015
509.541
502.045
494.531
487.003
479.464
471.919
464.369
456.819
449.272
441.732
434.201
426.684
419.183
411.702
404.245
396.814
389.412
382.041
374.702
367.397
360.125
352.885
345.678
338.504
331.361
324.25
317.172
310.128
303.118
296.145
289.21
282.314
275.459
268.641
261.859
255.113
248.405
241.735
235.106
228.519
221.977
215.481
209.034
202.638
196.295
190.005
183.77
177.591
171.468
165.401
159.39
153.434
147.534
141.689
135.897
130.157
124.467
118.825
113.229
107.675
102.159
96.6749
91.2173
85.7656
80.2859
75.1703
66.2239
61.1971
56.0245
51.0634
46.2382
41.5311
36.9294
32.4243
28.0094
23.68
19.4323
15.2633
11.1706
7.15205
3.20582
-0.669706
-4.47597
-8.21429
-11.8859
-15.4919
-19.0335
-22.5116
-25.9272
-29.2814
-32.575
-35.809
-38.9842
-42.1015
-45.1619
-48.1662
-51.1151
-54.0097
-56.8507
-59.6389
-62.3752
-65.0604
-67.6953
-70.2808
-72.8175
-75.3063
-77.748
-80.1432
-82.4928
-84.7975
-87.0581
-89.2752
-91.4495
-93.5819
-95.6729
-97.7234
-99.7339
-101.705
-103.638
-105.533
-107.39
-109.211
-110.996
-112.745
-114.46
-116.141
-117.788
-119.402
-120.984
-122.533
-124.05
-125.523
-127.083
-128.499
-129.895
-131.265
-132.607
-133.922
-135.21
-136.472
-137.709
-138.92
-140.106
-141.268
-142.406
-143.521
-144.613
-145.682
-146.729
-147.755
-148.759
-149.743
-150.706
-151.649
-152.572
-153.477
-154.362
-155.229
-156.078
-156.909
-157.723
-158.519
-159.299
-160.063
-160.811
-161.543
-162.259
-162.96
-163.647
-164.319
-164.977
-165.621
-166.251
-166.868
-167.472
-168.063
-168.641
-169.207
-169.761
-170.304
-170.834
-171.354
-171.862
-172.36
-172.846
-173.323
-173.789
-174.245
-174.692
-175.128
-175.556
-175.974
-176.383
-176.784
-177.176
-177.559
-177.934
-178.301
-178.66
-179.012
-179.355
-179.692
-180.021
-180.343
-180.658
-180.966
-181.267
-181.562
-181.85
-182.132
-182.408
-182.678
-182.942
-183.201
-183.453
-183.7
-183.942
-184.178
-184.409
-184.635
-184.857
-185.073
-185.284
-185.491
-185.693
-185.891
-186.084
-186.273
-186.458
-186.639
-186.815
-186.988
-187.157
-187.322
-187.483
-187.641
-187.795
-187.946
-188.093
-188.237
-188.377
-188.515
-188.649
-188.78
-188.909
-189.034
-189.156
-189.276
-189.393
-189.507
-189.618
-189.727
-189.833
-189.937
-190.039
-190.138
-190.234
-190.329
-190.421
-190.511
-190.599
-190.685
-190.768
-190.85
-190.93
-191.008
-191.084
-191.158
-191.23
-191.301
-191.37
-191.437
-191.503
-191.567
-191.629
-191.69
-191.749
-191.807
-191.864
-191.919
-191.973
-192.025
-192.076
-192.126
-192.175
-192.223
-192.269
-192.314
-192.358
-192.401
-192.443
-192.484
-192.523
-192.562
-192.6
-192.637
-192.672
-192.707
-192.741
-192.774
-192.806
-192.837
-192.867
-192.896
-192.924
-192.952
-192.978
-193.004
-193.029
-193.053
-193.075
-193.098
-193.119
-193.139
-193.158
-193.177
-193.195
-193.211
-193.227
-193.242
-193.257
-193.27
-193.282
-193.294
-193.304
-193.314
-193.323
-193.331
-193.338
-193.344
-193.349
-193.353
-193.356
-193.358
-193.359
-193.359
-193.36
-193.358
-193.354
-193.351
-193.346
-193.341
-193.337
-193.328
-193.315
-193.307
-193.3
-193.287
-193.272
-193.257
-193.24
-193.222
-193.203
-193.183
-193.161
-193.138
-193.114
-193.088
-193.06
-193.032
-193.001
-192.969
-192.936
-192.901
-192.864
-192.826
-192.786
-192.743
-192.7
-192.655
-192.608
-192.559
-192.507
-192.453
-192.4
-192.346
-192.286
-192.223
-192.159
-192.094
-192.028
-191.959
-191.885
-191.81
-191.734
-191.655
-191.571
-191.487
-191.4
-191.313
-191.223
-191.127
-191.029
-190.929
-190.826
-190.721
-190.614
-190.504
-190.392
-190.277
-190.16
-190.039
-189.916
-189.79
-189.661
-189.529
-189.394
-189.257
-189.117
-188.974
-188.829
-188.681
-188.531
-188.378
-188.223
-188.066
-187.907
-187.746
-187.584
-187.419
-187.253
-187.086
-186.918
-186.75
-186.58
-186.411
-186.241
-186.071
-185.903
-185.735
-185.569
-185.405
-185.245
-185.084
-184.926
-184.773
-184.624
-184.479
-184.34
-184.207
-184.08
-183.961
-183.849
-183.746
-183.652
-183.569
-183.496
-183.434
-183.384
-183.348
-183.326
-183.318
-183.323
-183.343
-183.378
-183.427
-183.495
-183.589
-183.704
-183.836
-183.984
-184.15
-184.334
-184.537
-184.758
-184.998
-185.257
-185.533
-185.826
-186.137
-186.463
-186.804
-187.159
-187.527
-187.907
-188.297
-188.697
-189.104
-189.517
-189.935
-190.356
-190.779
-191.202
-191.623
-192.041
-192.453
-192.86
-193.258
-193.646
-194.024
-194.39
-194.743
-195.083
-195.404
-195.707
-195.993
-196.261
-196.509
-196.74
-196.951
-197.136
-197.299
-197.439
-197.555
-197.649
-197.721
-197.77
-197.795
-197.795
-197.771
-197.723
-197.65
-197.553
-197.432
-197.287
-197.118
-196.925
-196.71
-196.471
-196.211
-195.929
-195.626
-195.303
-194.961
-194.6
-194.222
-193.827
-193.417
-192.993
-192.555
-192.105
-191.644
-191.173
-190.694
-190.208
-189.716
-189.219
-188.719
-188.216
-187.713
-187.209
-186.707
-186.207
-185.709
-185.216
-184.727
-184.243
-183.765
-183.293
-182.827
-182.368
-181.917
-181.472
-181.034
-180.602
-180.178
-179.759
-179.346
-178.938
-178.536
-178.137
-177.742
-177.35
-176.961
-176.573
-176.187
-175.802
-175.417
-175.032
-174.647
-174.262
-173.876
-173.49
-173.103
-172.716
-172.33
-171.945
-171.561
-171.18
-170.802
-170.428
-170.061
-169.7
-169.347
-169.005
-168.674
-168.357
-168.055
-167.77
-167.504
-167.26
-167.038
-166.842
-166.672
-166.532
-166.422
-166.345
-166.301
-166.294
-166.324
-166.393
-166.505
-166.671
-166.882
-167.133
-167.43
-167.776
-168.172
-168.618
-169.115
-169.663
-170.262
-170.913
-171.615
-172.368
-173.172
-174.026
-174.929
-175.88
-176.878
-177.923
-179.012
-180.145
-181.318
-182.531
-183.781
-185.067
-186.385
-187.734
-189.11
-190.511
-191.934
-193.376
-194.834
-196.305
-197.784
-199.269
-200.755
-202.24
-203.719
-205.188
-206.644
-208.083
-209.5
-210.892
-212.255
-213.584
-214.877
-216.129
-217.336
-218.495
-219.604
-220.658
-221.655
-222.592
-223.468
-224.279
-225.024
-225.701
-226.31
-226.849
-227.318
-227.715
-228.045
-228.304
-228.493
-228.616
-228.671
-228.66
-228.587
-228.454
-228.264
-228.02
-227.725
-227.383
-226.996
-226.567
-226.1
-225.597
-225.062
-224.499
-223.911
-223.3
-222.67
-222.023
-221.364
-220.695
-220.017
-219.335
-218.65
-217.964
-217.281
-216.6
-215.925
-215.257
-214.597
-213.947
-213.308
-212.681
-212.066
-211.465
-210.878
-210.305
-209.747
-209.203
-208.675
-208.162
-207.664
-207.181
-206.713
-206.259
-205.821
-205.401
-204.993
-204.599
-204.216
-203.845
-203.486
-203.139
-202.801
-202.474
-202.155
-201.843
-201.539
-201.24
-200.946
-200.655
-200.367
-200.08
-199.793
-199.503
-199.211
-198.914
-198.611
-198.301
-197.981
-197.65
-197.306
-196.948
-196.575
-196.183
-195.773
-195.341
-194.887
-194.409
-193.906
-193.375
-192.816
-192.227
-191.607
-190.954
-190.268
-189.548
-188.793
-188.001
-187.173
-186.307
-185.404
-184.462
-183.482
-182.463
-181.406
-180.311
-179.178
-178.008
-176.799
-175.551
-174.268
-172.948
-171.593
-170.203
-168.779
-167.323
-165.835
-164.315
-162.766
-161.187
-159.579
-157.942
-156.28
-154.591
-152.877
-151.14
-149.378
-147.592
-145.784
-143.952
-142.099
-140.222
-138.324
-136.403
-134.459
-132.493
-130.503
-128.489
-126.451
-124.388
-122.299
-120.183
-118.039
-115.867
-113.664
-111.43
-109.163
-106.863
-104.527
-102.155
-99.7437
-97.2931
-94.801
-92.2662
-89.6869
-87.0616
-84.3888
-81.6669
-78.8947
-76.0704
-73.1926
-70.2599
-67.2711
-64.2249
-61.1202
-57.9558
-54.7309
-51.4443
-48.0952
-44.683
-41.2069
-37.6663
-34.0607
-30.3896
-26.6526
-22.8494
-18.9797
-15.0432
-11.04
-6.96987
-2.83285
1.37104
5.64169
9.97885
14.3824
18.8523
23.3886
27.991
32.6589
37.3919
42.1898
47.0523
51.9796
56.972
62.0301
67.1492
72.3312
77.5778
82.8889
88.2607
93.6929
99.1862
104.74
110.354
116.03
121.766
127.561
133.417
139.329
145.297
151.324
157.41
163.552
169.75
176.004
182.313
188.676
195.096
201.568
208.092
214.668
221.294
227.971
234.698
241.472
248.294
255.162
262.075
269.033
276.033
283.075
290.157
297.278
304.436
311.63
318.859
326.12
333.413
340.734
348.083
355.458
362.857
370.277
377.717
385.174
392.647
400.133
407.629
415.131
422.639
430.149
437.66
445.167
452.67
460.164
467.648
475.118
482.572
490.006
497.418
504.806
512.165
519.494
526.789
534.047
541.266
548.443
555.574
562.656
569.683
576.66
583.581
590.443
597.243
603.978
610.645
617.243
623.767
630.216
636.588
642.878
649.086
655.209
661.244
667.19
673.043
678.802
684.465
690.028
695.49
700.85
706.104
711.25
716.288
721.214
726.027
730.724
735.304
739.766
744.106
748.324
752.416
756.383
760.222
763.93
767.508
770.952
774.261
777.434
780.468
783.363
786.117
788.727
791.193
793.513
795.686
797.71
799.582
801.303
802.87
804.281
805.535
806.63
807.563
808.332
808.935
809.369
809.635
809.733
809.673
809.474
809.091
808.533
807.8
806.894
805.823
804.572
803.141
801.536
799.753
797.793
795.655
793.339
790.846
788.175
785.327
782.302
779.102
775.727
772.179
768.458
764.567
760.506
756.279
751.888
747.334
742.621
737.751
732.728
727.555
722.235
716.773
711.172
705.436
699.57
693.578
687.464
681.234
674.893
668.444
661.894
655.248
648.51
641.687
634.783
627.805
620.757
613.644
606.473
599.247
591.973
584.655
577.299
569.909
562.49
555.046
547.583
540.104
532.614
525.117
517.616
510.115
502.618
495.127
487.647
480.179
472.728
465.294
457.881
450.491
443.127
435.789
428.479
421.201
413.954
406.74
399.561
392.418
385.312
378.243
371.214
364.224
357.275
350.368
343.503
336.681
329.903
323.17
316.483
309.842
303.249
296.704
290.209
283.764
277.371
271.03
264.743
258.511
252.336
246.219
240.16
234.162
228.226
222.354
216.546
210.804
205.129
199.523
193.987
188.521
183.126
177.803
172.554
167.378
162.277
157.251
152.299
147.423
142.623
137.896
133.245
128.667
124.162
119.73
115.368
111.077
106.855
102.7
98.612
94.5915
90.63
86.7265
82.8835
79.0953
75.3838
71.7052
68.078
64.502
60.9735
57.4887
54.0499
50.6494
47.2884
43.9648
40.6767
37.4222
34.1993
31.0062
27.8416
24.7038
21.5912
18.5025
15.4363
12.3915
9.36671
6.36091
3.37308
0.402245
-2.55247
-5.49179
-8.41643
-11.3271
-14.224
-17.1077
-19.9782
-22.8361
-25.6816
-28.5146
-31.335
-34.1426
-36.9374
-39.719
-42.4869
-45.2407
-47.9799
-50.704
-53.4121
-56.1036
-58.7779
-61.434
-64.0712
-66.6883
-69.2848
-71.8595
-74.4115
-76.9398
-79.4435
-81.9217
-84.3733
-86.7974
-89.1933
-91.56
-93.8966
-96.2023
-98.4765
-100.718
-102.927
-105.103
-107.245
-109.352
-111.424
-113.462
-115.464
-117.431
-119.363
-121.259
-123.121
-124.948
-126.74
-128.498
-130.222
-131.913
-133.571
-135.197
-136.792
-138.356
-139.89
-141.394
-142.87
-144.318
-145.738
-147.131
-148.499
-149.841
-151.159
-152.452
-153.721
-154.968
-156.191
-157.392
-158.571
-159.729
-160.865
-161.979
-163.073
-164.145
-165.197
-166.227
-167.237
-168.226
-169.193
-170.139
-171.064
-171.967
-172.849
-173.709
-174.547
-175.363
-176.156
-176.928
-177.676
-178.403
-179.106
-179.788
-180.447
-181.084
-181.699
-182.292
-182.864
-183.414
-183.944
-184.455
-184.945
-185.417
-185.87
-186.307
-186.726
-187.129
-187.518
-187.892
-188.253
-188.602
-188.94
-189.267
-189.585
-189.894
-190.195
-190.49
-190.78
-191.064
-191.343
-191.619
-191.893
-192.164
-192.433
-192.702
-192.97
-193.237
-193.504
-193.772
-194.04
-194.309
-194.579
-194.849
-195.12
-195.392
-195.665
-195.938
-196.212
-196.486
-196.761
-197.035
-197.309
-197.584
-197.858
-198.131
-198.404
-198.677
-198.949
-199.222
-199.494
-199.767
-200.04
-200.315
-200.591
-200.87
-201.152
-201.437
-201.727
-202.024
-202.329
-202.641
-202.961
-203.291
-203.632
-203.986
-204.353
-204.734
-205.131
-205.544
-205.974
-206.423
-206.891
-207.379
-207.887
-208.416
-208.966
-209.536
-210.128
-210.74
-211.372
-212.023
-212.692
-213.378
-214.08
-214.796
-215.523
-216.261
-217.006
-217.756
-218.508
-219.26
-220.007
-220.747
-221.477
-222.192
-222.89
-223.566
-224.217
-224.84
-225.429
-225.982
-226.494
-226.963
-227.384
-227.754
-228.07
-228.329
-228.526
-228.659
-228.728
-228.735
-228.672
-228.533
-228.321
-228.037
-227.678
-227.246
-226.739
-226.158
-225.503
-224.776
-223.976
-223.105
-222.165
-221.157
-220.084
-218.948
-217.752
-216.497
-215.188
-213.826
-212.416
-210.96
-209.463
-207.927
-206.356
-204.755
-203.126
-201.473
-199.801
-198.114
-196.414
-194.705
-192.993
-191.278
-189.566
-187.86
-186.164
-184.479
-182.811
-181.162
-179.534
-177.931
-176.355
-174.81
-173.297
-171.819
-170.379
-168.977
-167.617
-166.301
-165.029
-163.805
-162.629
-161.503
-160.428
-159.406
-158.439
-157.526
-156.67
-155.871
-155.13
-154.447
-153.825
-153.263
-152.761
-152.32
-151.94
-151.62
-151.361
-151.161
-151.022
-150.942
-150.932
-150.971
-151.068
-151.223
-151.438
-151.71
-152.039
-152.424
-152.863
-153.355
-153.897
-154.488
-155.127
-155.81
-156.537
-157.304
-158.11
-158.953
-159.829
-160.737
-161.673
-162.636
-163.622
-164.629
-165.655
-166.696
-167.75
-168.813
-169.885
-170.961
-172.04
-173.119
-174.195
-175.266
-176.33
-177.385
-178.429
-179.459
-180.474
-181.473
-182.453
-183.413
-184.352
-185.269
-186.163
-187.032
-187.876
-188.695
-189.487
-190.252
-190.99
-191.7
-192.383
-193.038
-193.664
-194.263
-194.835
-195.378
-195.893
-196.382
-196.843
-197.276
-197.683
-198.064
-198.417
-198.745
-199.047
-199.323
-199.573
-199.799
-200
-200.175
-200.326
-200.453
-200.555
-200.632
-200.685
-200.717
-200.727
-200.717
-200.686
-200.636
-200.567
-200.479
-200.374
-200.252
-200.114
-199.962
-199.796
-199.617
-199.427
-199.226
-199.017
-198.799
-198.575
-198.346
-198.113
-197.878
-197.641
-197.404
-197.168
-196.935
-196.706
-196.481
-196.263
-196.052
-195.849
-195.656
-195.472
-195.299
-195.138
-194.99
-194.854
-194.733
-194.626
-194.534
-194.458
-194.398
-194.354
-194.327
-194.317
-194.325
-194.351
-194.394
-194.456
-194.536
-194.635
-194.754
-194.892
-195.052
-195.234
-195.436
-195.657
-195.9
-196.163
-196.446
-196.749
-197.072
-197.416
-197.779
-198.161
-198.562
-198.981
-199.417
-199.87
-200.337
-200.82
-201.315
-201.823
-202.341
-202.869
-203.405
-203.947
-204.493
-205.042
-205.593
-206.144
-206.692
-207.236
-207.774
-208.306
-208.828
-209.339
-209.839
-210.324
-210.795
-211.249
-211.686
-212.104
-212.503
-212.881
-213.237
-213.573
-213.887
-214.176
-214.442
-214.684
-214.904
-215.102
-215.272
-215.42
-215.545
-215.648
-215.731
-215.792
-215.835
-215.858
-215.863
-215.85
-215.822
-215.778
-215.719
-215.647
-215.563
-215.468
-215.362
-215.247
-215.125
-214.995
-214.86
-214.72
-214.576
-214.43
-214.282
-214.133
-213.985
-213.838
-213.694
-213.552
-213.414
-213.281
-213.153
-213.031
-212.917
-212.81
-212.71
-212.62
-212.539
-212.467
-212.405
-212.354
-212.314
-212.284
-212.266
-212.259
-212.263
-212.279
-212.309
-212.35
-212.403
-212.467
-212.542
-212.629
-212.726
-212.833
-212.949
-213.074
-213.207
-213.347
-213.494
-213.647
-213.805
-213.966
-214.13
-214.295
-214.461
-214.626
-214.79
-214.95
-215.107
-215.258
-215.402
-215.539
-215.667
-215.785
-215.892
-215.987
-216.069
-216.137
-216.189
-216.227
-216.247
-216.248
-216.23
-216.192
-216.134
-216.056
-215.949
-215.818
-215.666
-215.49
-215.29
-215.066
-214.818
-214.545
-214.249
-213.928
-213.583
-213.214
-212.822
-212.406
-211.966
-211.505
-211.022
-210.517
-209.992
-209.448
-208.885
-208.305
-207.709
-207.098
-206.473
-205.836
-205.187
-204.53
-203.864
-203.191
-202.513
-201.832
-201.148
-200.464
-199.781
-199.1
-198.423
-197.751
-197.086
-196.429
-195.781
-195.144
-194.518
-193.905
-193.305
-192.72
-192.151
-191.598
-191.062
-190.543
-190.042
-189.56
-189.097
-188.653
-188.229
-187.825
-187.446
-187.084
-186.743
-186.421
-186.121
-185.841
-185.58
-185.339
-185.117
-184.914
-184.729
-184.561
-184.411
-184.276
-184.156
-184.051
-183.959
-183.879
-183.811
-183.753
-183.705
-183.664
-183.631
-183.603
-183.579
-183.558
-183.54
-183.521
-183.502
-183.48
-183.455
-183.424
-183.387
-183.341
-183.286
-183.219
-183.139
-183.045
-182.935
-182.806
-182.658
-182.489
-182.297
-182.08
-181.836
-181.564
-181.262
-180.928
-180.559
-180.156
-179.715
-179.235
-178.714
-178.149
-177.54
-176.885
-176.183
-175.431
-174.628
-173.774
-172.867
-171.905
-170.888
-169.814
-168.684
-167.496
-166.25
-164.945
-163.581
-162.159
-160.677
-159.137
-157.537
-155.88
-154.165
-152.392
-150.563
-148.677
-146.738
-144.746
-142.702
-140.604
-138.455
-136.259
-134.017
-131.73
-129.399
-127.029
-124.62
-122.171
-119.685
-117.164
-114.612
-112.032
-109.426
-106.797
-104.146
-101.474
-98.7834
-96.0772
-93.3571
-90.6252
-87.883
-85.132
-82.3741
-79.6113
-76.8444
-74.0746
-71.3038
-68.5323
-65.7611
-62.9901
-60.2204
-57.452
-54.6858
-51.9216
-49.1589
-46.3972
-43.6355
-40.873
-38.1089
-35.3417
-32.5703
-29.7932
-27.009
-24.2161
-21.4123
-18.5956
-15.7641
-12.9155
-10.0475
-7.1576
-4.2434
-1.30223
1.66844
4.67109
7.7083
10.7827
13.8968
17.0533
20.2546
23.5034
26.8022
30.1535
33.5598
37.0234
40.5467
44.1319
47.7812
51.497
55.2816
59.1368
63.0654
67.065
71.1394
75.2895
79.5183
83.8289
88.2201
92.6929
97.2475
101.888
106.613
111.425
116.318
121.294
126.357
131.505
136.739
142.056
147.457
152.944
158.514
164.165
169.897
175.71
181.603
187.576
193.626
199.753
205.957
212.235
218.586
225.01
231.504
238.067
244.698
251.394
258.155
264.977
271.861
278.802
285.801
292.853
299.958
307.114
314.317
321.567
328.86
336.194
343.567
350.975
358.417
365.89
373.392
380.92
388.471
396.043
403.633
411.239
418.858
426.486
434.122
441.762
449.403
457.043
464.679
472.307
479.924
487.529
495.116
502.684
510.229
517.748
525.237
532.694
540.115
547.498
554.838
562.132
569.379
576.573
583.712
590.793
597.812
604.767
611.655
618.472
625.215
631.881
638.466
644.964
651.38
657.708
663.945
670.088
676.133
682.079
687.922
693.66
699.289
704.808
710.214
715.504
720.675
725.726
730.654
735.455
740.129
744.673
749.083
753.359
757.497
761.495
765.352
769.065
772.631
776.05
779.318
782.434
785.396
788.203
790.853
793.344
795.674
797.844
799.85
801.695
803.374
804.893
806.242
807.439
808.496
809.416
810.221
810.892
811.433
811.927
812.358
813.374
814.061
811.557
809.52
808.03
806.549
804.952
803.201
801.32
799.313
797.154
794.82
792.334
789.699
786.916
783.971
780.874
777.634
774.247
770.715
767.037
763.217
759.259
755.167
750.943
746.59
742.11
737.506
732.783
727.944
722.991
717.928
712.758
707.486
702.114
696.645
691.084
685.433
679.696
673.876
667.977
662.002
655.953
649.835
643.65
637.4
631.09
624.722
618.299
611.823
605.297
598.724
592.105
585.443
578.741
572
565.222
558.41
551.565
544.69
537.786
530.855
523.899
516.919
509.918
502.897
495.857
488.799
481.727
474.641
467.542
460.433
453.314
446.188
439.056
431.919
424.78
417.64
410.5
403.362
396.228
389.099
381.978
374.865
367.762
360.671
353.594
346.532
339.487
332.459
325.451
318.464
311.5
304.559
297.642
290.752
283.889
277.054
270.247
263.471
256.726
250.011
243.329
236.68
230.064
223.482
216.935
210.421
203.942
197.498
191.089
184.715
178.378
172.077
165.813
159.586
153.397
147.245
141.132
135.058
129.024
123.03
117.077
111.166
105.298
99.4743
93.6946
87.9602
82.273
76.6339
71.0447
65.5164
60.0308
54.598
49.2196
43.8997
38.6369
33.4311
28.283
23.227
18.2045
13.2475
8.35797
3.53615
-1.21706
-5.90042
-10.5128
-15.0535
-19.521
-23.9144
-28.2326
-32.4741
-36.6391
-40.7261
-44.7342
-48.6626
-52.5107
-56.2776
-59.9629
-63.566
-67.0863
-70.5231
-73.8761
-77.1449
-80.3291
-83.4284
-86.4427
-89.3717
-92.2155
-94.974
-97.6474
-100.236
-102.74
-105.159
-107.495
-109.748
-111.918
-114.008
-116.017
-117.948
-119.8
-121.577
-123.28
-124.91
-126.47
-127.962
-129.388
-130.751
-132.053
-133.297
-134.486
-135.624
-136.713
-137.756
-138.757
-139.72
-140.647
-141.543
-142.41
-143.254
-144.076
-144.88
-145.671
-146.452
-147.225
-147.995
-148.764
-149.535
-150.313
-151.098
-151.895
-152.706
-153.533
-154.379
-155.246
-156.135
-157.05
-157.991
-158.96
-159.959
-160.989
-162.05
-163.144
-164.271
-165.431
-166.625
-167.854
-169.116
-170.413
-171.744
-173.109
-174.502
-175.924
-177.376
-178.857
-180.364
-181.896
-183.45
-185.024
-186.616
-188.223
-189.843
-191.472
-193.107
-194.745
-196.383
-198.019
-199.647
-201.266
-202.871
-204.459
-206.027
-207.572
-209.089
-210.577
-212.032
-213.451
-214.83
-216.168
-217.463
-218.71
-219.909
-221.057
-222.153
-223.195
-224.181
-225.11
-225.981
-226.794
-227.549
-228.249
-228.894
-229.474
-229.995
-230.461
-230.873
-231.231
-231.538
-231.794
-232.002
-232.163
-232.28
-232.355
-232.391
-232.39
-232.355
-232.289
-232.195
-232.076
-231.935
-231.775
-231.6
-231.412
-231.216
-231.013
-230.807
-230.601
-230.399
-230.203
-230.015
-229.839
-229.678
-229.533
-229.407
-229.303
-229.222
-229.166
-229.136
-229.134
-229.16
-229.216
-229.303
-229.419
-229.567
-229.747
-229.957
-230.199
-230.471
-230.773
-231.109
-231.478
-231.876
-232.298
-232.743
-233.211
-233.702
-234.212
-234.739
-235.281
-235.836
-236.4
-236.972
-237.549
-238.128
-238.706
-239.279
-239.844
-240.4
-240.943
-241.469
-241.971
-242.451
-242.905
-243.33
-243.723
-244.08
-244.4
-244.68
-244.917
-245.108
-245.252
-245.347
-245.391
-245.382
-245.32
-245.203
-245.031
-244.803
-244.518
-244.176
-243.778
-243.324
-242.813
-242.248
-241.628
-240.956
-240.231
-239.456
-238.632
-237.761
-236.844
-235.884
-234.883
-233.843
-232.766
-231.656
-230.514
-229.345
-228.15
-226.933
-225.698
-224.447
-223.183
-221.911
-220.633
-219.353
-218.074
-216.799
-215.532
-214.276
-213.033
-211.808
-210.601
-209.417
-208.256
-207.123
-206.017
-204.942
-203.898
-202.887
-201.91
-200.967
-200.059
-199.187
-198.349
-197.547
-196.78
-196.048
-195.349
-194.682
-194.048
-193.444
-192.869
-192.321
-191.801
-191.305
-190.833
-190.382
-189.951
-189.54
-189.145
-188.766
-188.401
-188.05
-187.71
-187.381
-187.062
-186.753
-186.452
-186.159
-185.875
-185.598
-185.329
-185.069
-184.819
-184.577
-184.346
-184.127
-183.921
-183.73
-183.553
-183.395
-183.255
-183.136
-183.038
-182.965
-182.918
-182.899
-182.913
-182.965
-183.047
-183.165
-183.321
-183.518
-183.757
-184.04
-184.369
-184.744
-185.168
-185.641
-186.164
-186.738
-187.363
-188.039
-188.768
-189.548
-190.38
-191.262
-192.195
-193.177
-194.206
-195.281
-196.401
-197.563
-198.765
-200.004
-201.276
-202.58
-203.91
-205.265
-206.638
-208.028
-209.429
-210.836
-212.246
-213.654
-215.054
-216.444
-217.817
-219.171
-220.501
-221.803
-223.073
-224.308
-225.505
-226.66
-227.771
-228.837
-229.855
-230.823
-231.739
-232.604
-233.417
-234.177
-234.885
-235.546
-236.159
-236.717
-237.227
-237.69
-238.109
-238.485
-238.821
-239.118
-239.378
-239.603
-239.795
-239.956
-240.088
-240.192
-240.271
-240.325
-240.355
-240.364
-240.353
-240.322
-240.272
-240.205
-240.121
-240.02
-239.904
-239.774
-239.63
-239.472
-239.303
-239.122
-238.932
-238.731
-238.523
-238.307
-238.086
-237.86
-237.629
-237.396
-237.16
-236.923
-236.685
-236.449
-236.213
-235.981
-235.751
-235.527
-235.307
-235.093
-234.887
-234.689
-234.501
-234.324
-234.159
-234.007
-233.871
-233.751
-233.649
-233.567
-233.506
-233.468
-233.454
-233.466
-233.506
-233.577
-233.677
-233.809
-233.976
-234.18
-234.422
-234.703
-235.023
-235.386
-235.793
-236.244
-236.739
-237.281
-237.867
-238.499
-239.179
-239.909
-240.683
-241.504
-242.372
-243.287
-244.247
-245.252
-246.3
-247.39
-248.519
-249.687
-250.891
-252.129
-253.398
-254.696
-256.02
-257.366
-258.731
-260.112
-261.503
-262.901
-264.3
-265.697
-267.086
-268.462
-269.818
-271.152
-272.456
-273.724
-274.951
-276.132
-277.26
-278.331
-279.341
-280.282
-281.149
-281.939
-282.649
-283.273
-283.804
-284.243
-284.587
-284.831
-284.971
-285.006
-284.937
-284.759
-284.469
-284.069
-283.557
-282.934
-282.199
-281.351
-280.389
-279.313
-278.128
-276.832
-275.425
-273.91
-272.285
-270.554
-268.717
-266.777
-264.736
-262.595
-260.355
-258.02
-255.592
-253.073
-250.464
-247.772
-245.002
-242.141
-239.203
-236.191
-233.111
-229.961
-226.743
-223.466
-220.134
-216.753
-213.328
-209.863
-206.366
-202.841
-199.295
-195.735
-192.166
-188.596
-185.029
-181.471
-177.93
-174.41
-170.917
-167.457
-164.034
-160.652
-157.316
-154.033
-150.81
-147.647
-144.542
-141.503
-138.536
-135.64
-132.821
-130.084
-127.429
-124.858
-122.374
-119.979
-117.676
-115.462
-113.338
-111.304
-109.363
-107.52
-105.77
-104.111
-102.553
-101.078
-99.6882
-98.3884
-97.1717
-96.038
-94.9857
-94.0105
-93.1094
-92.279
-91.5145
-90.8113
-90.165
-89.571
-89.0241
-88.5189
-88.0506
-87.6143
-87.2041
-86.8142
-86.439
-86.0737
-85.7125
-85.3492
-84.9794
-84.5984
-84.2011
-83.7832
-83.3416
-82.8727
-82.3727
-81.8387
-81.269
-80.6623
-80.016
-79.3284
-78.5996
-77.8296
-77.0185
-76.1653
-75.2698
-74.3335
-73.3578
-72.344
-71.2932
-70.207
-69.0876
-67.9367
-66.7549
-65.5441
-64.3072
-63.0461
-61.7616
-60.4556
-59.1302
-57.7866
-56.4264
-55.0505
-53.66
-52.2553
-50.837
-49.4054
-47.9603
-46.5023
-45.0308
-43.5452
-42.0447
-40.5287
-38.9954
-37.4433
-35.8711
-34.2763
-32.6571
-31.0118
-29.3387
-27.6347
-25.8973
-24.1259
-22.3188
-20.4739
-18.59
-16.6673
-14.706
-12.7052
-10.6647
-8.58625
-6.4717
-4.32211
-2.14061
0.0698692
2.30813
4.57196
6.85745
9.16091
11.4795
13.8101
16.1483
18.49
20.8322
23.172
25.506
27.8311
30.1445
32.4437
34.7259
36.9893
39.2319
41.4511
43.645
45.8126
47.9526
50.0629
52.1436
54.1946
56.2136
58.2005
60.1555
62.077
63.9679
65.8279
67.6561
69.4553
71.2216
72.9556
74.6654
76.3509
78.0113
79.6497
81.2696
82.8722
84.4605
86.0375
87.6062
89.1685
90.7279
92.286
93.8469
95.4112
96.9852
98.5716
100.169
101.782
103.412
105.06
106.727
108.411
110.115
111.836
113.575
115.332
117.106
118.897
120.705
122.526
124.359
126.203
128.057
129.917
131.78
133.648
135.517
137.382
139.243
141.1
142.948
144.785
146.608
148.418
150.213
151.988
153.741
155.473
157.182
158.861
160.512
162.138
163.735
165.294
166.823
168.321
169.781
171.202
172.589
173.941
175.252
176.522
177.754
178.949
180.1
181.211
182.284
183.317
184.308
185.261
186.177
187.053
187.892
188.693
189.457
190.184
190.876
191.532
192.154
192.741
193.294
193.815
194.303
194.757
195.179
195.571
195.933
196.264
196.567
196.843
197.092
197.313
197.507
197.676
197.822
197.945