/*--------------------------------*- C++ -*----------------------------------*\
| =========                 |                                                 |
| \\      /  F ield         | OpenFOAM: The Open Source CFD Toolbox           |
|  \\    /   O peration     | Version:  v1812                                 |
|   \\  /    A nd           | Web:      www.OpenFOAM.com                      |
|    \\/     M anipulation  |                                                 |
\*---------------------------------------------------------------------------*/
FoamFile
{
    version     2.0;
    format      ascii;
    class       volVectorField;
    location    "0";
    object      U;
}
// * * * * * * * * * * * * * * * * * * * * * * * * * * * * * * * * * * * * * //

dimensions      [0 1 -1 0 0 0 0];


internalField   uniform (0 0 0);

boundaryField
{
    atmosphere
    {
        type            pressureInletOutletVelocity;
        value           uniform (0 0 0);
    }
    inlet
    {
        type            waveVelocity;
        refValue        nonuniform List<vector> 
82
(
(-0.10994 -3.11625e-06 0)
(-0.10994 -1.0336e-05 0)
(-0.10994 -1.85425e-05 0)
(-0.10994 -3.39646e-05 0)
(-0.109941 -5.65894e-05 0)
(-0.109943 -7.91867e-05 0)
(-0.109945 -0.000101745 0)
(-0.109947 -0.000124255 0)
(-0.10995 -0.000146704 0)
(-0.109954 -0.000169082 0)
(-0.109958 -0.000191378 0)
(-0.109962 -0.00021358 0)
(-0.109967 -0.000235679 0)
(-0.109973 -0.000257664 0)
(-0.109979 -0.000279523 0)
(-0.109985 -0.000301247 0)
(-0.109992 -0.000322824 0)
(-0.109999 -0.000344245 0)
(-0.110007 -0.000365498 0)
(-0.110016 -0.000386574 0)
(-0.110024 -0.000407462 0)
(-0.110034 -0.000428151 0)
(-0.110043 -0.000448633 0)
(-0.110053 -0.000468897 0)
(-0.110064 -0.000488933 0)
(-0.110075 -0.000508731 0)
(-0.110086 -0.000528282 0)
(-0.110098 -0.000547576 0)
(-0.110111 -0.000566604 0)
(-0.110123 -0.000585357 0)
(-0.110137 -0.000603824 0)
(-0.11015 -0.000621999 0)
(-0.110164 -0.00063987 0)
(-0.110178 -0.000657431 0)
(-0.110193 -0.000674671 0)
(-0.110208 -0.000691584 0)
(-0.110224 -0.00070816 0)
(-0.110239 -0.000724391 0)
(-0.110256 -0.00074027 0)
(-0.110272 -0.000755788 0)
(-0.110281 -0.000763572 0)
(0 0 0)
(0 0 0)
(0 0 0)
(0 0 0)
(0 0 0)
(0 0 0)
(0 0 0)
(0 0 0)
(0 0 0)
(0 0 0)
(0 0 0)
(0 0 0)
(0 0 0)
(0 0 0)
(0 0 0)
(0 0 0)
(0 0 0)
(0 0 0)
(0 0 0)
(0 0 0)
(0 0 0)
(0 0 0)
(0 0 0)
(0 0 0)
(0 0 0)
(0 0 0)
(0 0 0)
(0 0 0)
(0 0 0)
(0 0 0)
(0 0 0)
(0 0 0)
(0 0 0)
(0 0 0)
(0 0 0)
(0 0 0)
(0 0 0)
(0 0 0)
(0 0 0)
(0 0 0)
(0 0 0)
)
;
        refGradient     uniform (0 0 0);
        valueFraction   uniform 1;
        value           nonuniform List<vector> 
82
(
(-0.10994 -3.11625e-06 0)
(-0.10994 -1.0336e-05 0)
(-0.10994 -1.85425e-05 0)
(-0.10994 -3.39646e-05 0)
(-0.109941 -5.65894e-05 0)
(-0.109943 -7.91867e-05 0)
(-0.109945 -0.000101745 0)
(-0.109947 -0.000124255 0)
(-0.10995 -0.000146704 0)
(-0.109954 -0.000169082 0)
(-0.109958 -0.000191378 0)
(-0.109962 -0.00021358 0)
(-0.109967 -0.000235679 0)
(-0.109973 -0.000257664 0)
(-0.109979 -0.000279523 0)
(-0.109985 -0.000301247 0)
(-0.109992 -0.000322824 0)
(-0.109999 -0.000344245 0)
(-0.110007 -0.000365498 0)
(-0.110016 -0.000386574 0)
(-0.110024 -0.000407462 0)
(-0.110034 -0.000428151 0)
(-0.110043 -0.000448633 0)
(-0.110053 -0.000468897 0)
(-0.110064 -0.000488933 0)
(-0.110075 -0.000508731 0)
(-0.110086 -0.000528282 0)
(-0.110098 -0.000547576 0)
(-0.110111 -0.000566604 0)
(-0.110123 -0.000585357 0)
(-0.110137 -0.000603824 0)
(-0.11015 -0.000621999 0)
(-0.110164 -0.00063987 0)
(-0.110178 -0.000657431 0)
(-0.110193 -0.000674671 0)
(-0.110208 -0.000691584 0)
(-0.110224 -0.00070816 0)
(-0.110239 -0.000724391 0)
(-0.110256 -0.00074027 0)
(-0.110272 -0.000755788 0)
(-0.110281 -0.000763572 0)
(0 0 0)
(0 0 0)
(0 0 0)
(0 0 0)
(0 0 0)
(0 0 0)
(0 0 0)
(0 0 0)
(0 0 0)
(0 0 0)
(0 0 0)
(0 0 0)
(0 0 0)
(0 0 0)
(0 0 0)
(0 0 0)
(0 0 0)
(0 0 0)
(0 0 0)
(0 0 0)
(0 0 0)
(0 0 0)
(0 0 0)
(0 0 0)
(0 0 0)
(0 0 0)
(0 0 0)
(0 0 0)
(0 0 0)
(0 0 0)
(0 0 0)
(0 0 0)
(0 0 0)
(0 0 0)
(0 0 0)
(0 0 0)
(0 0 0)
(0 0 0)
(0 0 0)
(0 0 0)
(0 0 0)
)
;
    }
    outlet
    {
        type            fixedValue;
        value           uniform (0 0 0);
    }
    bottom
    {
        type            fixedValue;
        value           uniform (0 0 0);
    }
    frontBack
    {
        type            empty;
    }
}


// ************************************************************************* //
