/*--------------------------------*- C++ -*----------------------------------*\
| =========                 |                                                 |
| \\      /  F ield         | OpenFOAM: The Open Source CFD Toolbox           |
|  \\    /   O peration     | Version:  v1812                                 |
|   \\  /    A nd           | Web:      www.OpenFOAM.com                      |
|    \\/     M anipulation  |                                                 |
\*---------------------------------------------------------------------------*/
FoamFile
{
    version     2.0;
    format      ascii;
    class       volScalarField;
    location    "120";
    object      alpha.water;
}
// * * * * * * * * * * * * * * * * * * * * * * * * * * * * * * * * * * * * * //

dimensions      [0 0 0 0 0 0 0];


internalField   nonuniform List<scalar> 
212248
(
1
1
1
1
1
1
1
1
1
1
1
1
1
1
1
1
1
1
1
1
1
1
1
1
1
1
1
1
1
1
1
1
1
1
1
1
1
1
1
1
1
1
1
1
1
1
1
1
1
1
1
1
1
1
1
1
1
1
1
1
1
1
1
1
1
1
1
1
1
1
1
1
1
1
1
1
1
1
1
1
1
1
1
1
1
1
1
1
1
1
1
1
1
1
1
1
1
1
1
1
1
1
1
1
1
1
1
1
1
1
1
1
1
1
1
1
1
1
1
1
1
1
1
1
1
1
1
1
1
1
1
1
1
1
1
1
1
1
1
1
1
1
1
1
1
1
1
1
1
1
1
1
1
1
1
1
1
1
1
1
1
1
1
1
1
1
1
1
1
1
1
1
1
1
1
1
1
1
1
1
1
1
1
1
1
1
1
1
1
1
1
1
1
1
1
1
1
1
1
1
1
1
1
1
1
1
1
1
1
1
1
1
1
1
1
1
1
1
1
1
1
1
1
1
1
1
1
1
1
1
1
1
1
1
1
1
1
1
1
1
1
1
1
1
1
1
1
1
1
1
1
1
1
1
1
1
1
1
1
1
1
1
1
1
1
1
1
1
1
1
1
1
1
1
1
1
1
1
1
1
1
1
1
1
1
1
1
1
1
1
1
1
1
1
1
1
1
1
1
1
1
1
1
1
1
1
1
1
1
1
1
1
1
1
1
1
1
1
1
1
1
1
1
1
1
1
1
1
1
1
1
1
1
1
1
1
1
1
1
1
1
1
1
1
1
1
1
1
1
1
1
1
1
1
1
1
1
1
1
1
1
1
1
1
1
1
1
1
1
1
1
1
1
1
1
1
1
1
1
1
1
1
1
1
1
1
1
1
1
1
1
1
1
1
1
1
1
1
1
1
1
1
1
1
1
1
1
1
1
1
1
1
1
1
1
1
1
1
1
1
1
1
1
1
1
1
1
1
1
1
1
1
1
1
1
1
1
1
1
1
1
1
1
1
1
1
1
1
1
1
1
1
1
1
1
1
1
1
1
1
1
1
1
1
1
1
1
1
1
1
1
1
1
1
1
1
1
1
1
1
1
1
1
1
1
1
1
1
1
1
1
1
1
1
1
1
1
1
1
1
1
1
1
1
1
1
1
1
1
1
1
1
1
1
1
1
1
1
1
1
1
1
1
1
1
1
1
1
1
1
1
1
1
1
1
1
1
1
1
1
1
1
1
1
1
1
1
1
1
1
1
1
1
1
1
1
1
1
1
1
1
1
1
1
1
1
1
1
1
1
1
1
1
1
1
1
1
1
1
1
1
1
1
1
1
1
1
1
1
1
1
1
1
1
1
1
1
1
1
1
1
1
1
1
1
1
1
1
1
1
1
1
1
1
1
1
1
1
1
1
1
1
1
1
1
1
1
1
1
1
1
1
1
1
1
1
1
1
1
1
1
1
1
1
1
1
1
1
1
1
1
1
1
1
1
1
1
1
1
1
1
1
1
1
1
1
1
1
1
1
1
1
1
1
1
1
1
1
1
1
1
1
1
1
1
1
1
1
1
1
1
1
1
1
1
1
1
1
1
1
1
1
1
1
1
1
1
1
1
1
1
1
1
1
1
1
1
1
1
1
1
1
1
1
1
1
1
1
1
1
1
1
1
1
1
1
1
1
1
1
1
1
1
1
1
1
1
1
1
1
1
1
1
1
1
1
1
1
1
1
1
1
1
1
1
1
1
1
1
1
1
1
1
1
1
1
1
1
1
1
1
1
1
1
1
1
1
1
1
1
1
1
1
1
1
1
1
1
1
1
1
1
1
1
1
1
1
1
1
1
1
1
1
1
1
1
1
1
1
1
1
1
1
1
1
1
1
1
1
1
1
1
1
1
1
1
1
1
1
1
1
1
1
1
1
1
1
1
1
1
1
1
1
1
1
1
1
1
1
1
1
1
1
1
1
1
1
1
1
1
1
1
1
1
1
1
1
1
1
1
1
1
1
1
1
1
1
1
1
1
1
1
1
1
1
1
1
1
1
1
1
1
1
1
1
1
1
1
1
1
1
1
1
1
1
1
1
1
1
1
1
1
1
1
1
1
1
1
1
1
1
1
1
1
1
1
1
1
1
1
1
1
1
1
1
1
1
1
1
1
1
1
1
1
1
1
1
1
1
1
1
1
1
1
1
1
1
1
1
1
1
1
1
1
1
1
1
1
1
1
1
1
1
1
1
1
1
1
1
1
1
1
1
1
1
1
1
1
1
1
1
1
1
1
1
1
1
1
1
1
1
1
1
1
1
1
1
1
1
1
1
1
1
1
1
1
1
1
1
1
1
1
1
1
1
1
1
1
1
1
1
1
1
1
1
1
1
1
1
1
1
1
1
1
1
1
1
1
1
1
1
1
1
1
1
1
1
1
1
1
1
1
1
1
1
1
1
1
1
1
1
1
1
1
1
1
1
1
1
1
1
1
1
1
1
1
1
1
1
1
1
1
1
1
1
1
1
1
1
1
1
1
1
1
1
1
1
1
1
1
1
1
1
1
1
1
1
1
1
1
1
1
1
1
1
1
1
1
1
1
1
1
1
1
1
1
1
1
1
1
1
1
1
1
1
1
1
1
1
1
1
1
1
1
1
1
1
1
1
1
1
1
1
1
1
1
1
1
1
1
1
1
1
1
1
1
1
1
1
1
1
1
1
1
1
1
1
1
1
1
1
1
1
1
1
1
1
1
1
1
1
1
1
1
1
1
1
1
1
1
1
1
1
1
1
1
1
1
1
1
1
1
1
1
1
1
1
1
1
1
1
1
1
1
1
1
1
1
1
1
1
1
1
1
1
1
1
1
1
1
1
1
1
1
1
1
1
1
1
1
1
1
1
1
1
1
1
1
1
1
1
1
1
1
1
1
1
1
1
1
1
1
1
1
1
1
1
1
1
1
1
1
1
1
1
1
1
1
1
1
1
1
1
1
1
1
1
1
1
1
1
1
1
1
1
1
1
1
1
1
1
1
1
1
1
1
1
1
1
1
1
1
1
1
1
1
1
1
1
1
1
1
1
1
1
1
1
1
1
1
1
1
1
1
1
1
1
1
1
1
1
1
1
1
1
1
1
1
1
1
1
1
1
1
1
1
1
1
1
1
1
1
1
1
1
1
1
1
1
1
1
1
1
1
1
1
1
1
1
1
1
1
1
1
1
0.999986
0.99894
0.996499
0.994205
0.99348
0.994287
0.997872
0.999113
0.999088
0.998894
0.99888
0.999369
0.999786
0.999958
0.999994
0.999996
0.999997
0.999313
0.996534
0.993261
0.991118
0.99053
0.991547
0.996558
0.998608
0.998635
0.99726
0.99482
0.994418
0.996042
0.998728
0.999758
0.999815
0.999813
0.999818
0.999895
0.999965
0.999979
0.999956
0.999951
0.999979
0.999978
0.998969
0.996132
0.994296
0.995036
0.998786
0.999907
0.999986
0.999912
0.999429
0.99874
0.998211
0.998341
0.999471
0.999771
0.999772
0.999768
0.999698
0.999384
0.998956
0.998218
0.999046
0.999559
0.999548
0.999528
0.999327
0.999046
0.998868
0.998825
0.999105
0.999569
0.999781
0.999823
0.999821
0.999522
0.993751
0.980918
0.976208
0.982952
0.99569
0.999238
0.999363
0.999379
0.999068
0.998408
0.998107
0.998118
0.998331
0.99838
0.99851
0.998975
0.998607
0.993311
0.985928
0.982507
0.983692
0.993132
0.998912
0.999501
0.999589
0.999261
0.994056
0.986536
0.983191
0.984019
0.992174
0.998225
0.999683
0.999757
0.999718
0.998146
0.990982
0.983395
0.981209
0.984074
0.993244
0.998527
0.999703
0.999797
0.999353
0.999232
0.999567
0.99989
0.999932
0.999332
0.992034
0.980667
0.974787
0.97465
0.984093
0.994658
0.998991
0.999874
0.999922
0.999778
0.999653
0.999566
0.999422
0.99908
0.996094
0.988209
0.984439
0.985007
0.991502
0.997219
0.999286
0.99934
0.999374
0.999247
0.997935
0.98847
0.977807
0.978317
0.986327
0.995984
0.999077
0.996799
0.993434
0.993524
0.99578
0.999115
0.999624
0.999172
0.995134
0.979529
0.96331
0.963197
0.971665
0.987271
0.998328
0.999953
0.999926
0.999554
0.998672
0.998925
0.999381
0.999736
0.999631
0.998371
0.986067
0.978669
0.983925
0.994927
0.999912
0.99998
0.999851
0.997359
0.981335
0.96246
0.966727
0.986388
0.998603
0.999808
0.999122
0.998183
0.998254
0.999349
0.99978
0.999826
0.999826
0.994949
0.978208
0.967965
0.968799
0.985976
0.997531
0.9996
0.999593
0.998542
0.996783
0.996665
0.998473
0.999154
0.998322
0.99775
0.998201
0.99901
0.999133
0.999037
0.998952
0.999257
0.999768
0.999964
0.999981
0.995837
0.973088
0.945899
0.932767
0.931098
0.947495
0.977296
0.9952
0.999099
0.999425
0.99954
0.999678
0.9997
0.999445
0.998897
0.998753
0.998789
0.998883
0.998898
0.998815
0.998732
0.998735
0.999007
0.999317
0.998755
0.993033
0.985474
0.982279
0.990295
0.995411
0.996685
0.9972
0.998096
0.999252
0.999302
0.993955
0.979341
0.963986
0.958791
0.962245
0.982328
0.996616
0.999327
0.999486
0.999151
0.997713
0.996239
0.995606
0.995555
0.996355
0.997693
0.9987
0.999171
0.999289
0.998122
0.981592
0.956591
0.954221
0.978871
0.997308
0.998753
0.998874
0.997277
0.984028
0.969964
0.967774
0.978013
0.989554
0.99131
0.981123
0.973988
0.975069
0.992463
0.996324
0.995766
0.993122
0.992124
0.993377
0.996274
0.99657
0.981145
0.959268
0.950955
0.957862
0.984222
0.997465
0.99932
0.999294
0.996897
0.992226
0.990369
0.994386
0.999028
0.999813
0.999875
0.999786
0.988645
0.962361
0.946785
0.945743
0.963667
0.983522
0.989192
0.989339
0.988492
0.995626
0.998462
0.998803
0.998832
0.998761
0.998605
0.998992
0.999777
0.999903
0.999477
0.990194
0.972816
0.957457
0.951611
0.950893
0.96161
0.982071
0.995878
0.998941
0.99904
0.998903
0.998632
0.998414
0.998359
0.998619
0.99931
0.999662
0.996656
0.986777
0.975013
0.967821
0.966051
0.965981
0.973715
0.987258
0.996836
0.998323
0.99682
0.989718
0.984552
0.983539
0.987594
0.995041
0.99879
0.999077
0.998281
0.992014
0.985377
0.985111
0.992607
0.998504
0.99965
0.999582
0.99939
0.999365
0.995753
0.986924
0.979648
0.97759
0.978636
0.986867
0.99474
0.998363
0.998913
0.99669
0.995893
0.997248
0.99849
0.997743
0.988918
0.979143
0.977661
0.986417
0.996952
0.999177
0.999276
0.996036
0.988095
0.984632
0.986525
0.995082
0.999146
0.999669
0.99962
0.996979
0.981694
0.96361
0.961528
0.977951
0.994262
0.997967
0.998317
0.996887
0.996981
0.998312
0.998889
0.999036
0.999106
0.994097
0.981354
0.974626
0.975427
0.98968
0.997816
0.998358
0.988037
0.963956
0.958855
0.977171
0.994953
0.99886
0.998726
0.99753
0.997176
0.997395
0.988213
0.962843
0.946344
0.943506
0.948666
0.959563
0.96697
0.971422
0.976466
0.983446
0.991592
0.996182
0.995476
0.987588
0.974044
0.972617
0.983153
0.993998
0.999142
0.998665
0.997769
0.991767
0.981823
0.982757
0.989127
0.99746
0.998894
0.99763
0.984554
0.969778
0.973453
0.987808
0.998722
0.999933
0.999665
0.996698
0.986223
0.984312
0.988654
0.995641
0.996681
0.991698
0.994246
0.997389
0.99972
0.999903
0.998476
0.98744
0.97305
0.975025
0.988223
0.998608
0.998055
0.984145
0.975876
0.986425
0.998068
0.99969
0.999487
0.999104
0.998774
0.998693
0.999448
0.99982
0.996746
0.991024
0.986903
0.985477
0.985134
0.987821
0.995068
0.9993
0.999932
0.999958
0.999963
0.999796
0.996804
0.991348
0.987118
0.985751
0.985928
0.990804
0.996814
0.999442
0.999775
0.99974
0.999703
0.999701
0.999768
0.999834
0.999674
0.995219
0.987117
0.980927
0.979463
0.983211
0.993064
0.998846
0.999716
0.999784
0.999288
0.996562
0.994597
0.994627
0.997587
0.999369
0.998411
0.992853
0.987968
0.986747
0.989321
0.995721
0.999139
0.999815
0.999776
0.998435
0.996886
0.99653
0.997609
0.998921
0.999357
0.999525
0.999675
0.999752
0.999121
0.99284
0.984231
0.979391
0.978699
0.984397
0.99398
0.998872
0.999681
0.999693
0.999575
0.999392
0.999246
0.999018
0.998722
0.998822
0.999496
0.999859
0.999864
0.999863
0.999885
0.99989
0.999573
0.997858
0.9957
0.996112
0.999209
0.999696
0.999811
0.99988
0.999841
0.996667
0.990148
0.985515
0.98487
0.990335
0.99746
0.999657
0.999864
0.99986
0.999882
0.999547
0.995969
0.990789
0.987733
0.987341
0.991279
0.997128
0.99954
0.999922
0.999923
0.999846
0.999782
0.999757
0.999752
0.999756
0.999766
0.999734
0.999215
0.998346
0.998115
0.999412
0.999901
0.999901
0.999443
0.999058
0.999
0.999268
0.999578
0.999708
0.999763
0.999169
0.996894
0.994896
0.994306
0.994884
0.997229
0.998323
0.998039
0.997207
0.997639
0.999512
0.999746
0.999701
0.999592
0.999531
0.999528
0.999631
0.999799
0.999869
0.999742
0.99782
0.994776
0.994133
0.997674
0.998669
0.998748
0.997995
0.997011
0.996686
0.997303
0.998086
0.998495
0.998925
0.99404
0.966118
0.953021
0.978147
0.997549
0.999612
0.996698
0.986903
0.979194
0.97702
0.976674
0.979275
0.989811
0.998
0.998794
0.998787
0.998177
0.998368
0.999531
0.999875
0.999826
0.99797
0.990938
0.980321
0.972975
0.966671
0.963941
0.967521
0.985953
0.996525
0.996849
0.996591
0.989106
0.979578
0.977363
0.978594
0.979453
0.971718
0.966805
0.966757
0.975455
0.987938
0.99708
0.999395
0.999466
0.999064
0.998966
0.998449
0.991846
0.981656
0.979034
0.986177
0.996576
0.997335
0.994996
0.990117
0.964438
0.979506
0.996379
0.994666
0.990047
0.987629
0.985575
0.985213
0.984401
0.987112
0.913504
0.947912
0.993987
0.99429
0.986814
0.987017
0.995072
0.996421
0.99757
0.962934
0.897881
0.952248
0.971143
0.977702
0.985089
0.992078
0.998483
0.999198
0.996699
0.994356
0.993851
0.994435
0.995618
0.995914
0.995993
0.996446
0.995578
0.994869
0.994855
0.995512
0.995372
0.996771
0.998861
0.998526
0.988964
0.973642
0.968128
0.970202
0.985998
0.997607
0.999739
0.999763
0.996183
0.989542
0.986994
0.988466
0.995505
0.999034
0.998878
0.993592
0.987597
0.987336
0.994965
0.999045
0.999342
0.997136
0.986789
0.977052
0.986118
0.998029
0.999628
0.999538
0.999319
0.99926
0.999252
0.999257
0.999321
0.999421
0.999515
0.99955
0.992146
0.971416
0.95988
0.959034
0.97265
0.991216
0.998065
0.998249
0.997548
0.997122
0.997133
0.997608
0.997982
0.995301
0.974563
0.957157
0.956723
0.979619
0.99641
0.998957
0.998573
0.997505
0.996471
0.995031
0.994053
0.994176
0.995918
0.996899
0.98773
0.952667
0.936714
0.941401
0.958845
0.965977
0.984275
0.994725
0.996327
0.996395
0.995442
0.995042
0.995099
0.995408
0.995968
0.996594
0.997076
0.990737
0.964933
0.95503
0.969736
0.991914
0.9973
0.997495
0.994541
0.993865
0.996531
0.999304
0.99951
0.998748
0.996338
0.995578
0.998528
0.99896
0.99831
0.998242
0.998825
0.99919
0.999256
0.999287
0.999394
0.999477
0.999308
0.998809
0.999048
0.999414
0.999323
0.999126
0.999071
0.999035
0.998995
0.998871
0.998691
0.998556
0.99828
0.997665
0.996999
0.996815
0.996716
0.996567
0.996551
0.996621
0.996596
0.996718
0.997092
0.997233
0.996494
0.995083
0.994855
0.99561
0.996033
0.996695
0.997665
0.998253
0.99835
0.998221
0.997744
0.997206
0.996778
0.996651
0.996784
0.996898
0.995468
0.992779
0.991784
0.993194
0.996028
0.996047
0.991638
0.990103
0.996761
0.99902
0.999155
0.992604
0.967952
0.939442
0.922195
0.912562
0.933595
0.948897
0.950529
0.949993
0.933527
0.91644
0.94699
0.963004
0.965902
0.969494
0.967275
0.963295
0.983048
0.98749
0.988711
0.990181
0.990546
0.989548
0.986424
0.988109
0.987485
0.990938
0.991682
0.991877
0.991498
0.992582
0.990956
0.989663
0.989082
0.988042
0.985471
0.978439
0.967284
0.956144
0.949373
0.93995
0.935073
0.935079
0.940937
0.946088
0.948178
0.948665
0.948714
0.94426
0.935469
0.927417
0.922622
0.912165
0.901059
0.90013
0.901728
0.896281
0.887009
0.830766
0.775407
0.72507
0.695246
0.699131
0.736899
0.752331
0.752075
0.727928
0.703654
0.700789
0.713116
0.734955
0.746741
0.746514
0.724738
0.69468
0.678445
0.647358
0.632426
0.60363
0.575178
0.545259
0.524623
0.517718
0.504275
0.493358
0.477899
0.46124
0.437246
0.410788
0.388129
0.375111
0.3658
0.354268
0.327332
0.283308
0.238966
0.223931
0.236732
0.258272
0.262003
0.260058
0.260552
0.257612
0.230348
0.193515
0.17711
0.175748
0.179578
0.183096
0.184826
0.177209
0.160303
0.145691
0.140839
0.142012
0.140257
0.124696
0.110342
0.0995043
0.0933034
0.0883519
0.0793913
0.0753601
1
1
1
1
1
1
1
1
1
1
1
1
1
1
1
1
1
1
1
1
1
1
1
1
1
1
1
1
1
1
1
1
1
1
1
1
1
1
1
1
1
1
1
1
1
1
1
1
1
1
1
1
1
1
1
1
1
1
1
1
1
1
1
1
1
1
1
1
1
1
1
1
1
1
1
1
1
1
1
1
1
1
1
1
1
1
1
1
1
1
1
1
1
1
1
1
1
1
1
1
1
1
1
1
1
1
1
1
1
1
1
1
1
1
1
1
1
1
1
1
1
1
1
1
1
1
1
1
1
1
1
1
1
1
1
1
1
1
1
1
1
1
1
1
1
1
1
1
1
1
1
1
1
1
1
1
1
1
1
1
1
1
1
1
1
1
1
1
1
1
1
1
1
1
1
1
1
1
1
1
1
1
1
1
1
1
1
1
1
1
1
1
1
1
1
1
1
1
1
1
1
1
1
1
1
1
1
1
1
1
1
1
1
1
1
1
1
1
1
1
1
1
1
1
1
1
1
1
1
1
1
1
1
1
1
1
1
1
1
1
1
1
1
1
1
1
1
1
1
1
1
1
1
1
1
1
1
1
1
1
1
1
1
1
1
1
1
1
1
1
1
1
1
1
1
1
1
1
1
1
1
1
1
1
1
1
1
1
1
1
1
1
1
1
1
1
1
1
1
1
1
1
1
1
1
1
1
1
1
1
1
1
1
1
1
1
1
1
1
1
1
1
1
1
1
1
1
1
1
1
1
1
1
1
1
1
1
1
1
1
1
1
1
1
1
1
1
1
1
1
1
1
1
1
1
1
1
1
1
1
1
1
1
1
1
1
1
1
1
1
1
1
1
1
1
1
1
1
1
1
1
1
1
1
1
1
1
1
1
1
1
1
1
1
1
1
1
1
1
1
1
1
1
1
1
1
1
1
1
1
1
1
1
1
1
1
1
1
1
1
1
1
1
1
1
1
1
1
1
1
1
1
1
1
1
1
1
1
1
1
1
1
1
1
1
1
1
1
1
1
1
1
1
1
1
1
1
1
1
1
1
1
1
1
1
1
1
1
1
1
1
1
1
1
1
1
1
1
1
1
1
1
1
1
1
1
1
1
1
1
1
1
1
1
1
1
1
1
1
1
1
1
1
1
1
1
1
1
1
1
1
1
1
1
1
1
1
1
1
1
1
1
1
1
1
1
1
1
1
1
1
1
1
1
1
1
1
1
1
1
1
1
1
1
1
1
1
1
1
1
1
1
1
1
1
1
1
1
1
1
1
1
1
1
1
1
1
1
1
1
1
1
1
1
1
1
1
1
1
1
1
1
1
1
1
1
1
1
1
1
1
1
1
1
1
1
1
1
1
1
1
1
1
1
1
1
1
1
1
1
1
1
1
1
1
1
1
1
1
1
1
1
1
1
1
1
1
1
1
1
1
1
1
1
1
1
1
1
1
1
1
1
1
1
1
1
1
1
1
1
1
1
1
1
1
1
1
1
1
1
1
1
1
1
1
1
1
1
1
1
1
1
1
1
1
1
1
1
1
1
1
1
1
1
1
1
1
1
1
1
1
1
1
1
1
1
1
1
1
1
1
1
1
1
1
1
1
1
1
1
1
1
1
1
1
1
1
1
1
1
1
1
1
1
1
1
1
1
1
1
1
1
1
1
1
1
1
1
1
1
1
1
1
1
1
1
1
1
1
1
1
1
1
1
1
1
1
1
1
1
1
1
1
1
1
1
1
1
1
1
1
1
1
1
1
1
1
1
1
1
1
1
1
1
1
1
1
1
1
1
1
1
1
1
1
1
1
1
1
1
1
1
1
1
1
1
1
1
1
1
1
1
1
1
1
1
1
1
1
1
1
1
1
1
1
1
1
1
1
1
1
1
1
1
1
1
1
1
1
1
1
1
1
1
1
1
1
1
1
1
1
1
1
1
1
1
1
1
1
1
1
1
1
1
1
1
1
1
1
1
1
1
1
1
1
1
1
1
1
1
1
1
1
1
1
1
1
1
1
1
1
1
1
1
1
1
1
1
1
1
1
1
1
1
1
1
1
1
1
1
1
1
1
1
1
1
1
1
1
1
1
1
1
1
1
1
1
1
1
1
1
1
1
1
1
1
1
1
1
1
1
1
1
1
1
1
1
1
1
1
1
1
1
1
1
1
1
1
1
1
1
1
1
1
1
1
1
1
1
1
1
1
1
1
1
1
1
1
1
1
1
1
1
1
1
1
1
1
1
1
1
1
1
1
1
1
1
1
1
1
1
1
1
1
1
1
1
1
1
1
1
1
1
1
1
1
1
1
1
1
1
1
1
1
1
1
1
1
1
1
1
1
1
1
1
1
1
1
1
1
1
1
1
1
1
1
1
1
1
1
1
1
1
1
1
1
1
1
1
1
1
1
1
1
1
1
1
1
1
1
1
1
1
1
1
1
1
1
1
1
1
1
1
1
1
1
1
1
1
1
1
1
1
1
1
1
1
1
1
1
1
1
1
1
1
1
1
1
1
1
1
1
1
1
1
1
1
1
1
1
1
1
1
1
1
1
1
1
1
1
1
1
1
1
1
1
1
1
1
1
1
1
1
1
1
1
1
1
1
1
1
1
1
1
1
1
1
1
1
1
1
1
1
1
1
1
1
1
1
1
1
1
1
1
1
1
1
1
1
1
1
1
1
1
1
1
1
1
1
1
1
1
1
1
1
1
1
1
1
1
1
1
1
1
1
1
1
1
1
1
1
1
1
1
1
1
1
1
1
1
1
1
1
1
1
1
1
1
1
1
1
1
1
1
1
1
1
1
1
1
1
1
1
1
1
1
1
1
1
1
1
1
1
1
1
1
1
1
1
1
1
1
1
1
1
1
1
1
1
1
1
1
1
1
1
1
1
1
1
1
1
1
1
1
1
1
1
1
1
1
1
1
1
1
1
1
1
1
1
1
1
1
1
1
1
1
1
1
1
1
1
1
1
1
1
1
1
1
1
1
1
1
1
1
1
1
1
1
1
1
1
1
1
1
1
1
1
1
1
1
1
1
1
1
1
1
1
1
1
1
1
1
1
1
1
1
1
1
1
1
1
1
1
1
1
1
1
1
1
1
1
1
1
1
1
1
1
1
1
1
1
1
1
1
1
1
1
1
1
1
1
1
1
1
1
1
1
1
1
1
1
1
1
1
1
1
1
1
1
1
1
1
1
1
1
1
1
1
1
1
1
1
1
1
1
1
1
1
1
1
1
1
1
1
1
1
1
1
1
1
1
1
1
1
1
1
1
1
1
1
1
1
1
1
1
1
1
1
1
1
1
1
1
1
1
1
1
1
1
1
1
1
1
1
1
1
1
1
1
1
1
1
1
1
1
1
1
1
1
1
1
1
1
1
1
1
1
1
1
1
1
1
1
1
1
1
1
1
1
1
1
1
1
1
1
1
1
1
1
1
1
1
1
1
1
1
1
1
1
1
1
1
1
1
1
1
1
1
1
1
1
1
1
1
1
1
1
1
1
1
1
1
1
1
1
1
1
1
1
1
1
1
1
1
1
1
1
1
1
1
1
1
1
1
1
1
1
1
1
1
1
1
1
1
1
1
1
1
1
1
1
1
1
1
1
1
1
1
1
1
1
1
1
1
1
1
1
1
1
1
1
1
1
1
1
1
1
1
1
1
1
1
1
1
1
1
1
1
1
1
1
1
1
1
1
1
1
1
1
1
1
1
1
1
1
1
1
1
1
1
1
1
1
1
1
1
1
1
1
1
1
1
1
1
1
1
1
1
1
1
1
1
1
1
1
1
1
1
1
1
1
1
1
1
1
1
1
1
1
1
1
1
1
1
1
1
1
1
1
1
1
1
1
1
1
1
1
1
1
1
1
1
1
1
1
1
1
1
1
1
1
1
1
1
1
1
1
1
1
1
1
1
1
1
1
1
1
1
1
1
1
1
1
1
1
1
1
1
1
1
1
1
1
1
1
1
1
1
1
1
1
1
1
1
1
1
1
1
1
1
1
1
1
1
1
1
1
1
1
1
1
1
1
1
1
1
1
1
1
1
1
1
1
1
1
1
1
1
1
1
1
1
1
1
1
1
1
1
1
1
1
1
1
1
1
1
1
1
1
1
1
1
1
1
1
1
1
1
1
1
1
1
1
1
1
1
1
1
1
1
1
1
1
1
1
1
1
1
1
1
1
1
1
1
1
1
1
1
1
1
1
1
1
1
1
1
1
1
1
1
1
1
1
1
1
1
1
1
1
1
1
1
1
1
1
1
1
1
1
1
1
1
1
1
1
1
1
1
1
1
1
1
1
1
1
1
1
1
1
1
1
1
1
1
1
1
1
1
1
1
1
1
1
1
1
1
1
1
1
1
1
1
1
1
1
1
1
1
1
1
1
1
1
1
1
1
1
1
1
1
1
1
1
1
1
1
1
1
1
1
1
1
1
1
1
1
1
1
1
1
1
1
1
1
1
1
1
1
1
1
1
1
1
1
1
1
1
1
1
1
1
1
1
1
1
1
1
1
1
1
1
1
1
1
1
1
1
1
1
1
1
1
1
1
1
1
1
1
1
1
1
1
1
1
1
1
1
1
1
1
1
1
1
1
1
1
1
1
1
1
1
1
1
1
1
1
1
1
1
1
1
1
1
1
1
1
1
1
1
1
1
1
1
1
1
1
1
1
1
1
1
1
1
1
1
1
1
1
1
1
1
1
1
1
1
1
1
1
1
1
1
1
1
1
1
1
1
1
1
1
1
1
1
1
1
1
1
1
1
1
1
1
1
1
1
1
1
1
1
1
1
1
1
1
1
1
1
1
1
1
1
1
1
1
1
1
1
1
1
1
1
1
1
1
1
1
1
1
1
1
1
1
1
1
1
1
1
1
1
1
1
1
1
1
1
1
1
1
1
1
1
1
1
1
1
1
1
1
1
1
1
1
1
1
1
1
1
1
1
1
1
1
1
1
1
1
1
1
1
1
1
1
1
1
1
1
1
1
1
1
1
1
1
1
1
1
1
1
1
1
1
1
1
1
1
1
1
1
1
1
1
1
1
1
1
1
1
1
1
1
1
1
1
1
1
1
1
1
1
1
1
1
1
1
1
1
1
1
1
1
1
1
1
1
1
1
1
1
1
1
1
1
1
1
1
1
1
1
1
1
1
1
1
1
1
1
1
1
1
1
1
1
1
1
1
1
1
1
1
1
1
1
1
1
1
1
1
1
1
1
1
1
1
1
1
1
1
1
1
1
1
1
1
1
1
1
1
1
1
1
1
1
1
1
1
1
1
1
1
1
1
1
1
1
1
1
1
1
1
1
1
1
1
1
1
1
1
1
1
1
1
1
1
1
1
1
1
1
1
1
1
1
1
1
1
1
1
1
1
1
1
1
1
1
1
1
1
1
1
1
1
1
1
1
1
1
1
1
1
1
1
1
1
1
1
1
1
1
1
1
1
1
1
1
1
1
1
1
1
1
1
1
1
1
1
1
1
1
1
1
1
1
1
1
1
1
1
1
1
1
1
1
1
1
1
1
1
1
1
1
1
1
1
1
1
1
1
1
1
1
1
1
1
1
1
1
1
1
1
1
1
1
1
1
1
1
1
1
1
1
1
1
1
1
1
1
1
1
1
1
1
1
1
1
1
1
1
1
1
1
1
1
1
1
1
1
1
1
1
1
1
1
1
1
1
1
1
1
1
1
1
1
1
1
1
1
1
1
1
1
1
1
1
1
1
1
1
1
1
1
1
1
1
1
1
1
1
1
1
1
1
1
1
1
1
1
1
1
1
1
1
1
1
1
1
1
1
1
1
1
1
1
1
1
1
1
1
1
1
1
1
1
1
1
1
1
1
1
1
1
1
1
1
1
1
1
1
1
1
1
1
1
1
1
1
1
1
1
1
1
1
1
1
1
1
1
1
1
1
1
1
1
1
1
1
1
1
1
1
1
1
1
1
1
1
1
1
1
1
1
1
1
1
1
1
1
1
1
1
1
1
1
1
1
1
1
1
1
1
1
1
1
1
1
1
1
1
1
1
1
1
1
1
1
1
1
1
1
1
1
1
1
1
1
1
1
1
1
1
1
1
1
1
1
1
1
1
1
1
1
1
1
1
1
1
1
1
1
1
1
1
1
1
1
1
1
1
1
1
1
1
1
1
1
1
1
1
1
1
1
1
1
1
1
1
1
1
1
1
1
1
1
1
1
1
1
1
1
1
1
1
1
1
1
1
1
1
1
1
1
1
1
1
1
1
1
1
1
1
1
1
1
1
1
1
1
1
1
1
1
1
1
1
1
1
1
1
1
1
1
1
1
1
1
1
1
1
1
1
1
1
1
1
1
1
1
1
1
1
1
1
1
1
1
1
1
1
1
1
1
1
1
1
1
1
1
1
1
1
1
1
1
1
1
1
1
1
1
1
1
1
1
1
1
1
1
1
1
1
1
1
1
1
1
1
1
1
1
1
1
1
1
1
1
1
1
1
1
1
1
1
1
1
1
1
1
1
1
1
1
1
1
1
1
1
1
1
1
1
1
1
1
1
1
1
1
1
1
1
1
1
1
1
1
1
1
1
1
1
1
1
1
1
1
1
1
1
1
1
1
1
1
1
1
1
1
1
1
1
1
1
1
1
1
1
1
1
1
1
1
1
1
1
1
1
1
1
1
1
1
1
1
1
1
1
1
1
1
1
1
1
1
1
1
1
1
1
1
1
1
1
1
1
1
1
1
1
1
1
1
1
1
1
1
1
1
1
1
1
1
1
1
1
1
1
1
1
1
1
1
1
1
1
1
1
1
1
1
1
1
1
1
1
1
1
1
1
1
1
1
1
1
1
1
1
1
1
1
1
1
1
1
1
1
1
1
1
1
1
1
1
1
1
1
1
1
1
1
1
1
1
1
1
1
1
1
1
1
1
1
1
1
1
1
1
1
1
1
1
1
1
1
1
1
1
1
1
1
1
1
1
1
1
1
1
1
1
1
1
1
1
1
1
1
1
1
1
1
1
1
1
1
1
1
1
1
1
1
1
1
1
1
1
1
1
1
1
1
1
1
1
1
1
1
1
1
1
1
1
1
1
1
1
1
1
1
1
1
1
1
1
1
1
1
1
1
1
1
1
1
1
1
1
1
1
1
1
1
1
1
1
1
1
1
1
1
1
1
1
1
1
1
1
1
1
1
1
1
1
1
1
1
1
1
1
1
1
1
1
1
1
1
1
1
1
1
1
1
1
1
1
1
1
1
1
1
1
1
1
1
1
1
1
1
1
1
1
1
1
1
1
1
1
1
1
1
1
1
1
1
1
1
1
1
1
1
1
1
1
1
1
1
1
1
1
1
1
1
1
1
1
1
1
1
1
1
1
1
1
1
1
1
1
1
1
1
1
1
1
1
1
1
1
1
1
1
1
1
1
1
1
1
1
1
1
1
1
1
1
1
1
1
1
1
1
1
1
1
1
1
1
1
1
1
1
1
1
1
1
1
1
1
1
1
1
1
1
1
1
1
1
1
1
1
1
1
1
1
1
1
1
1
1
1
1
1
1
1
1
1
1
1
1
1
1
1
1
1
1
1
1
1
1
1
1
1
1
1
1
1
1
1
1
1
1
1
1
1
1
1
1
1
1
1
1
1
1
1
1
1
1
1
1
1
1
1
1
1
1
1
1
1
1
1
1
1
1
1
1
1
1
1
1
1
1
1
1
1
1
1
1
1
1
1
1
1
1
1
1
1
1
1
1
1
1
1
1
1
1
1
1
1
1
1
1
1
1
1
1
1
1
1
1
1
1
1
1
1
1
1
1
1
1
1
1
1
1
1
1
1
1
1
1
1
1
1
1
1
1
1
1
1
1
1
1
1
1
1
1
1
1
1
1
1
1
1
1
1
1
1
1
1
1
1
1
1
1
1
1
1
1
1
1
1
1
1
1
1
1
1
1
1
1
1
1
1
1
1
1
1
1
1
1
1
1
1
1
1
1
1
1
1
1
1
1
1
1
1
1
1
1
1
1
1
1
1
1
1
1
1
1
1
1
1
1
1
1
1
1
1
1
1
1
1
1
1
1
1
1
1
1
1
1
1
1
1
1
1
1
1
1
1
1
1
1
1
1
1
1
1
1
1
1
1
1
1
1
1
1
1
1
1
1
1
1
1
1
1
1
1
1
1
1
1
1
1
1
1
1
1
1
1
1
1
1
1
1
1
1
1
1
1
1
1
1
1
1
1
1
1
1
1
1
1
1
1
1
1
1
1
1
1
1
1
1
1
1
1
1
1
1
1
1
1
1
1
1
1
1
1
1
1
1
1
1
1
1
1
1
1
1
1
1
1
1
1
1
1
1
1
1
1
1
1
1
1
1
1
1
1
1
1
1
1
1
1
1
1
1
1
1
1
1
1
1
1
1
1
1
1
1
1
1
1
1
1
1
1
1
1
1
1
1
1
1
1
1
1
1
1
1
1
1
1
1
1
1
1
1
1
1
1
1
1
1
1
1
1
1
1
1
0.999999
0.999997
0.999996
0.999996
0.999994
0.999951
0.999608
0.99891
0.997975
0.997085
0.996732
0.996731
0.997212
0.999348
0.999824
0.999926
0.999957
0.999963
0.999957
0.999833
0.9996
0.999193
0.998688
0.998403
0.997746
0.996699
0.995584
0.995093
0.995093
0.995388
0.997773
0.998698
0.998867
0.998881
0.998782
0.998573
0.998563
0.998563
0.999174
0.999874
0.999962
0.999977
0.999981
0.999981
0.999981
0.999924
0.99899
0.997463
0.996768
0.997412
0.999363
0.999881
0.999773
0.998593
0.997167
0.996685
0.997497
0.998991
0.999265
0.999012
0.99839
0.998149
0.998152
0.99836
0.998585
0.9987
0.998717
0.998334
0.997105
0.996118
0.995865
0.996271
0.997568
0.998465
0.998692
0.998711
0.997989
0.996139
0.994093
0.992071
0.988819
0.98604
0.98828
0.990416
0.995282
0.997624
0.998271
0.999289
0.998629
0.995526
0.991942
0.989431
0.988817
0.988818
0.991119
0.998318
0.999125
0.997797
0.996516
0.995985
0.99584
0.99587
0.995871
0.996187
0.998758
0.9988
0.996914
0.996379
0.996339
0.997411
0.998726
0.999126
0.997908
0.995715
0.995591
0.995668
0.996292
0.996923
0.997794
0.998764
0.999296
0.999397
0.999405
0.999578
0.999752
0.999824
0.999843
0.999829
0.998586
0.996064
0.99561
0.995762
0.996341
0.997763
0.999051
0.999531
0.999587
0.999559
0.998978
0.998095
0.997415
0.996615
0.995191
0.994484
0.994485
0.995039
0.996079
0.99725
0.9977
0.996983
0.995938
0.995939
0.996534
0.995419
0.992861
0.992862
0.992934
0.994289
0.997048
0.99854
0.998275
0.998232
0.998499
0.999084
0.999012
0.997965
0.996834
0.992707
0.992668
0.99318
0.994333
0.996357
0.998501
0.999245
0.999285
0.99929
0.999293
0.999446
0.999402
0.99861
0.995714
0.992662
0.99056
0.98983
0.989883
0.99263
0.997632
0.99918
0.999183
0.998329
0.995936
0.991227
0.987451
0.986641
0.992004
0.998168
0.99973
0.999771
0.998447
0.993332
0.991614
0.991614
0.991797
0.992643
0.993504
0.993962
0.992494
0.994386
0.996322
0.997268
0.997726
0.998
0.997871
0.997978
0.99856
0.998604
0.998364
0.995535
0.992157
0.991492
0.991492
0.992575
0.998395
0.999767
0.999833
0.999851
0.999798
0.998768
0.996913
0.993947
0.991611
0.990992
0.991314
0.992806
0.993593
0.993789
0.993447
0.993547
0.996468
0.999623
0.999822
0.999789
0.999723
0.997563
0.99217
0.987441
0.986903
0.986903
0.986904
0.989491
0.994173
0.997169
0.998354
0.998718
0.998133
0.99273
0.982385
0.974839
0.974583
0.974583
0.976725
0.995817
0.999318
0.999318
0.998826
0.998472
0.998376
0.998299
0.997128
0.994787
0.992405
0.991702
0.989897
0.987086
0.98398
0.982323
0.982272
0.982272
0.985745
0.992699
0.993878
0.993856
0.99089
0.985215
0.977375
0.976895
0.979417
0.982423
0.990294
0.996643
0.993148
0.989743
0.989776
0.991828
0.993361
0.993589
0.993623
0.993624
0.992667
0.989745
0.986214
0.981774
0.98098
0.98098
0.981
0.980965
0.980965
0.987617
0.996167
0.993426
0.992151
0.994581
0.996889
0.996902
0.99314
0.990265
0.990265
0.991645
0.996688
0.998471
0.998814
0.997193
0.990564
0.988167
0.988167
0.988446
0.990173
0.993169
0.995997
0.99733
0.997586
0.99724
0.99486
0.992192
0.991286
0.991286
0.991286
0.99491
0.999261
0.999573
0.999198
0.998467
0.99837
0.99838
0.998249
0.998075
0.997834
0.99734
0.996145
0.994506
0.993452
0.993464
0.995166
0.99594
0.993245
0.992889
0.99289
0.992889
0.994079
0.998798
0.999451
0.998336
0.997349
0.997049
0.996502
0.995482
0.99431
0.99339
0.992974
0.992973
0.993688
0.997661
0.998421
0.998632
0.99875
0.998777
0.998097
0.994999
0.993147
0.993148
0.993534
0.994585
0.996067
0.997804
0.999011
0.999237
0.997415
0.996551
0.996551
0.996974
0.997539
0.997712
0.997777
0.997794
0.997768
0.997714
0.997714
0.998231
0.998642
0.998368
0.995304
0.991997
0.991997
0.992145
0.993156
0.994106
0.994489
0.994501
0.994502
0.994731
0.996777
0.996881
0.998111
0.998392
0.998392
0.997192
0.991524
0.985724
0.984895
0.985094
0.989224
0.995657
0.998711
0.999166
0.999124
0.996594
0.992042
0.991224
0.991224
0.991224
0.991224
0.993135
0.995638
0.993747
0.993492
0.991766
0.986634
0.986621
0.986233
0.984551
0.985844
0.993366
0.996818
0.997627
0.99319
0.985828
0.984313
0.984314
0.986976
0.991328
0.989492
0.990245
0.991704
0.992533
0.992936
0.993325
0.993799
0.994135
0.994234
0.992568
0.986149
0.984847
0.985498
0.990944
0.994999
0.997125
0.997477
0.995208
0.990596
0.990497
0.991077
0.993739
0.997121
0.99754
0.997588
0.996164
0.987794
0.985158
0.986269
0.991912
0.998336
0.99927
0.998065
0.993838
0.992814
0.994218
0.997317
0.998812
0.998613
0.996776
0.993207
0.992369
0.992369
0.995368
0.996475
0.993419
0.992198
0.993838
0.99523
0.995114
0.991735
0.991409
0.991409
0.994149
0.996212
0.996274
0.99527
0.995376
0.998728
0.999627
0.999637
0.999583
0.998759
0.997959
0.998122
0.99843
0.998416
0.998035
0.997761
0.998402
0.99955
0.999909
0.99993
0.999667
0.998794
0.997465
0.996673
0.996833
0.99718
0.997449
0.997623
0.998092
0.999055
0.999635
0.998843
0.998199
0.998199
0.998199
0.998302
0.998699
0.998597
0.998424
0.998367
0.998279
0.997986
0.996968
0.996113
0.996063
0.996174
0.998454
0.999138
0.998982
0.998852
0.998505
0.998328
0.998328
0.998442
0.998787
0.999167
0.999508
0.999725
0.999791
0.999799
0.998841
0.995089
0.993452
0.993452
0.993452
0.995596
0.997937
0.998353
0.998384
0.99806
0.997632
0.997635
0.99791
0.998077
0.998108
0.998056
0.997961
0.997947
0.997947
0.997947
0.997947
0.997946
0.998198
0.999487
0.999573
0.999573
0.999536
0.999506
0.999508
0.999533
0.99944
0.998553
0.997605
0.99749
0.99749
0.997456
0.997456
0.997957
0.9991
0.999248
0.999003
0.997958
0.997602
0.997413
0.997396
0.997696
0.998582
0.999408
0.999443
0.99928
0.999075
0.998914
0.998772
0.998883
0.999016
0.999197
0.999436
0.999534
0.99953
0.99924
0.998753
0.998657
0.998844
0.99919
0.999313
0.998985
0.998308
0.998094
0.998094
0.998734
0.999653
0.999887
0.9999
0.999709
0.998527
0.997842
0.997842
0.997842
0.997842
0.998633
0.999305
0.999145
0.998424
0.998108
0.998045
0.998181
0.998685
0.999008
0.999044
0.999044
0.99871
0.99772
0.997031
0.996946
0.997166
0.997242
0.996902
0.996765
0.996843
0.997737
0.998113
0.998113
0.996378
0.994281
0.994114
0.994114
0.994462
0.994785
0.995185
0.995796
0.993962
0.985182
0.980368
0.980336
0.980336
0.981535
0.987592
0.994254
0.996034
0.997174
0.995647
0.995647
0.995683
0.995542
0.99502
0.993387
0.991869
0.992747
0.994813
0.998638
0.999507
0.999507
0.999507
0.999101
0.997146
0.994394
0.990274
0.99019
0.987957
0.985681
0.985024
0.986254
0.987406
0.987435
0.990232
0.992296
0.992984
0.9902
0.988678
0.98858
0.990679
0.992119
0.99417
0.996239
0.996917
0.997603
0.998387
0.998871
0.995864
0.991469
0.990696
0.990696
0.992712
0.991291
0.987881
0.985737
0.988002
0.983394
0.975749
0.973678
0.979856
0.990446
0.987149
0.977924
0.977938
0.984301
0.987642
0.980212
0.953151
0.941255
0.935188
0.980819
0.995467
0.996418
0.995103
0.992496
0.985753
0.980157
0.96317
0.952615
0.95373
0.985201
0.991498
0.994081
0.995009
0.995118
0.995958
0.996246
0.98933
0.976341
0.964226
0.962292
0.966266
0.963975
0.960832
0.96978
0.98244
0.991574
0.996587
0.997071
0.997365
0.997446
0.994602
0.991613
0.991612
0.991276
0.992474
0.994773
0.997729
0.998787
0.998776
0.998147
0.996983
0.996498
0.996778
0.99688
0.996002
0.995069
0.995069
0.995073
0.995148
0.994705
0.993169
0.990709
0.988175
0.986782
0.986778
0.988682
0.995964
0.998626
0.99904
0.996784
0.994402
0.99376
0.993812
0.994428
0.994718
0.994543
0.992676
0.989975
0.987234
0.986475
0.991002
0.992408
0.992521
0.992113
0.988237
0.98691
0.986911
0.987814
0.990589
0.991765
0.991897
0.988173
0.983051
0.984691
0.990517
0.993806
0.994106
0.989624
0.98136
0.975832
0.973263
0.972787
0.972786
0.978105
0.988618
0.987918
0.979525
0.975242
0.97739
0.974963
0.971772
0.972726
0.981745
0.988992
0.991003
0.991773
0.991869
0.989825
0.987479
0.987092
0.987587
0.987586
0.988175
0.988113
0.989698
0.995885
0.998357
0.99858
0.99858
0.998578
0.998187
0.997612
0.997592
0.997664
0.997505
0.99745
0.997162
0.997245
0.997456
0.997368
0.996245
0.994789
0.994237
0.995279
0.997558
0.99884
0.999138
0.999172
0.999113
0.99858
0.997087
0.99592
0.995483
0.994169
0.991387
0.988982
0.988752
0.992354
0.993088
0.99004
0.986058
0.984274
0.986387
0.990747
0.991513
0.99032
0.980166
0.967953
0.961157
0.960654
0.963655
0.964618
0.96291
0.962829
0.965856
0.980027
0.98841
0.989975
0.989979
0.985395
0.979151
0.975052
0.972264
0.968366
0.96459
0.95985
0.955636
0.950812
0.942766
0.933559
0.930603
0.930258
0.922512
0.898132
0.889443
0.889081
0.922462
0.965365
0.946596
0.876754
0.849214
0.871859
0.759895
0.656747
0.683946
0.794538
0.826707
0.844985
0.659184
0.491954
0.679571
0.840592
0.869929
0.862357
0.733271
0.617364
0.783211
0.870717
0.863549
0.860666
0.930027
0.944144
0.950265
0.939863
0.883911
0.872069
0.905496
0.932906
0.94828
0.943602
0.893998
0.85992
0.854579
0.878847
0.901755
0.930396
0.933833
0.918157
0.890889
0.838302
0.804025
0.797978
0.793623
0.790968
0.789854
0.792571
0.795572
0.792026
0.785213
0.781541
0.803637
0.810651
0.808273
0.770828
0.749095
0.720458
0.68875
0.634614
0.61707
0.612249
0.58542
0.576621
0.57154
0.563006
0.556571
0.553027
0.550349
0.544637
0.53912
0.532657
0.523063
0.507349
0.478622
0.439506
0.39402
0.36877
0.374528
0.341231
0.331808
0.324467
0.309121
0.28933
0.259413
0.237275
0.226304
0.226496
0.220494
0.213425
0.207045
0.208314
0.215261
0.213877
0.216735
0.198023
0.174311
0.16301
0.148044
0.130271
0.120831
0.11432
0.110806
0.111465
0.106803
0.109324
0.101045
0.0949689
0.0869922
0.0864573
0.0774663
0.0667493
0.0624985
0.0596879
0.0608612
0.0669293
0.0849205
0.0777646
0.0538271
0.0494828
0.0457043
0.0439866
0.0474825
0.0362069
1
1