/*--------------------------------*- C++ -*----------------------------------*\
| =========                 |                                                 |
| \\      /  F ield         | OpenFOAM: The Open Source CFD Toolbox           |
|  \\    /   O peration     | Version:  v1812                                 |
|   \\  /    A nd           | Web:      www.OpenFOAM.com                      |
|    \\/     M anipulation  |                                                 |
\*---------------------------------------------------------------------------*/
FoamFile
{
    version     2.0;
    format      ascii;
    class       volScalarField;
    location    "120";
    object      beta;
}
// * * * * * * * * * * * * * * * * * * * * * * * * * * * * * * * * * * * * * //

dimensions      [0 0 0 0 0 0 0];


internalField   nonuniform List<scalar> 
212248
(
0.0706717
0.0707803
0.0707999
0.0707999
0.0707999
0.0708
0.0707992
0.0707975
0.0707991
0.0707996
0.0707992
0.0707986
0.0707995
0.0708
0.0707993
0.0707982
0.0707988
0.070799
0.0707991
0.0707993
0.0707994
0.0707996
0.0707999
0.0707999
0.0707996
0.0707993
0.0707989
0.0707985
0.0707981
0.0707977
0.0707972
0.0707967
0.0707961
0.0707955
0.0707949
0.0707942
0.0707935
0.0707927
0.0707919
0.0707911
0.0707902
0.0707893
0.0707883
0.0707873
0.0707863
0.0707852
0.0707841
0.0707829
0.0707817
0.0707805
0.0707792
0.0707779
0.0707765
0.070775
0.0707736
0.070772
0.0707704
0.0707687
0.0707669
0.0707651
0.0707633
0.0707614
0.0707596
0.0707578
0.0707561
0.0707546
0.0707533
0.0707521
0.0707516
0.070752
0.0707516
0.0707509
0.0707501
0.0707492
0.0707483
0.0707473
0.0707462
0.0707452
0.070744
0.0707429
0.0707417
0.0707404
0.070739
0.0707376
0.0707361
0.0707345
0.0707328
0.070731
0.070731
0.0707065
0.0704986
0.0703106
0.0707073
0.0707825
0.0707829
0.0707548
0.0707417
0.070734
0.0707293
0.0707263
0.0707243
0.0707229
0.070722
0.0707214
0.070721
0.0707208
0.0707208
0.070721
0.0707212
0.0707216
0.0707222
0.0707228
0.0707235
0.0707243
0.0707252
0.0707262
0.0707273
0.0707284
0.0707297
0.070731
0.0707325
0.070734
0.0707356
0.0707372
0.070739
0.0707406
0.0707423
0.0707442
0.0707463
0.0707484
0.0707506
0.0707529
0.0707553
0.0707577
0.0707601
0.0707625
0.070765
0.0707675
0.07077
0.0707724
0.0707747
0.070777
0.0707793
0.0707815
0.0707836
0.0707856
0.0707876
0.0707894
0.070791
0.0707926
0.0707939
0.0707952
0.0707962
0.0707971
0.0707979
0.0707985
0.070799
0.0707994
0.0707997
0.0707999
0.0708
0.0708
0.0707999
0.0707999
0.0707997
0.0707986
0.0707989
0.0707991
0.0707997
0.0708
0.0707997
0.0707999
0.0707999
0.0707998
0.0707995
0.0707991
0.0707986
0.070798
0.0707973
0.0707964
0.0707954
0.0707942
0.0707927
0.0707912
0.0707897
0.070788
0.0707862
0.0707843
0.0707823
0.0707802
0.0707779
0.0707754
0.0707729
0.0707702
0.0707674
0.0707644
0.0707613
0.0707581
0.0707547
0.0707513
0.0707477
0.0707439
0.0707401
0.0707361
0.0707321
0.0707279
0.0707235
0.0707191
0.0707145
0.07071
0.0707053
0.0707006
0.0706959
0.0706911
0.0706862
0.0706812
0.0706763
0.0706713
0.0706662
0.0706612
0.0706561
0.070651
0.070646
0.0706409
0.0706358
0.0706308
0.0706258
0.0706208
0.0706159
0.0706111
0.0706063
0.0706016
0.0705969
0.0705924
0.0705879
0.0705836
0.0705794
0.0705753
0.0705713
0.0705675
0.0705638
0.0705604
0.0705571
0.070554
0.0705511
0.0705485
0.0705461
0.070544
0.0705422
0.0705405
0.0705391
0.0705379
0.0705371
0.0705365
0.0705363
0.0705363
0.0705367
0.0705373
0.0705382
0.0705393
0.0705406
0.0705418
0.0705428
0.0705431
0.0705419
0.0705371
0.0705237
0.0704985
0.0704626
0.0703838
0.0703804
0.0706866
0.0702629
0.0705622
0.0706703
0.070621
0.0705803
0.0705404
0.0705362
0.0704989
0.0704553
0.0704481
0.0704313
0.0704032
0.0703816
0.0703607
0.0703404
0.0703205
0.0703011
0.070282
0.0702633
0.070245
0.070227
0.0702093
0.0701919
0.0701749
0.0701583
0.070142
0.070126
0.0701104
0.0700952
0.0700805
0.070066
0.0700516
0.0700421
0.0700127
0.0698139
0.0658667
0.0662576
0.0700388
0.069962
0.0699675
0.0699507
0.0699464
0.069938
0.0699329
0.0699276
0.0699237
0.0699206
0.0699186
0.0699177
0.0699178
0.0699191
0.0699213
0.0699245
0.0699299
0.0699379
0.069949
0.069963
0.0699782
0.069994
0.0700116
0.0700293
0.0700471
0.0700655
0.0700843
0.0701061
0.0701287
0.0701509
0.0701705
0.0701906
0.0702163
0.0702438
0.0702681
0.0702813
0.0702802
0.0702716
0.0702819
0.0703089
0.0703353
0.0703548
0.0703654
0.0703654
0.0703497
0.0703072
0.0702263
0.0701149
0.0700384
0.0700956
0.0702835
0.0704382
0.0705403
0.0706123
0.0706669
0.0707087
0.0707425
0.070771
0.0707973
0.0707698
0.0707565
0.0707433
0.0707304
0.0707171
0.0707072
0.0706986
0.0706965
0.0706946
0.0706951
0.0706959
0.0706947
0.0706956
0.0706961
0.0706994
0.070703
0.0707069
0.0707138
0.070719
0.0707234
0.0707306
0.0707386
0.070747
0.0707526
0.0707604
0.0707683
0.0707764
0.0707818
0.0707835
0.0707859
0.070789
0.0707922
0.0707946
0.070797
0.0707988
0.0707997
0.0708
0.0707996
0.0707984
0.0707965
0.0707939
0.0707902
0.070788
0.0707814
0.0707755
0.0707687
0.0707614
0.0707538
0.0707451
0.0707358
0.0707262
0.070716
0.0707039
0.0706922
0.070682
0.0706695
0.0706562
0.070644
0.0706323
0.0706206
0.0706075
0.0705945
0.0705835
0.0705726
0.0705617
0.0705491
0.0705394
0.070534
0.0705234
0.0705111
0.0705077
0.0705045
0.0704951
0.0704856
0.0704836
0.0704898
0.0704857
0.0704754
0.0704746
0.0704864
0.0704943
0.0704837
0.0704776
0.0704978
0.0705152
0.0705024
0.0705008
0.0705239
0.0705415
0.0705406
0.0705491
0.0705383
0.0705769
0.0704875
0.0707225
0.070312
0.070406
0.069631
0.0693473
0.0680839
0.0659463
0.068782
0.0631605
0.0645612
0.0695963
0.0690805
0.0702503
0.0706552
0.0707272
0.0706944
0.0707513
0.0707841
0.0706095
0.0705965
0.0707466
0.0706932
0.0706423
0.0706311
0.0707033
0.0707443
0.0707314
0.0706631
0.0706306
0.070612
0.0705713
0.0705354
0.0705207
0.0705056
0.07048
0.0704486
0.0704338
0.0704233
0.0704015
0.0703809
0.070369
0.070361
0.0703413
0.0702971
0.0702838
0.0703018
0.070292
0.0702873
0.0702864
0.0702851
0.0702825
0.0702856
0.0702916
0.0702975
0.0702999
0.0703158
0.0703239
0.0703334
0.0703444
0.0703625
0.0703757
0.0703897
0.0704042
0.0704252
0.070445
0.0704594
0.0704798
0.0704994
0.0705235
0.0705473
0.0705674
0.0706004
0.0706318
0.0706721
0.0706856
0.0706819
0.0707025
0.070723
0.0707461
0.0707587
0.0707727
0.0707888
0.0707955
0.070785
0.0707784
0.0707727
0.0707671
0.0707616
0.0707611
0.0707598
0.0707588
0.0707611
0.0707631
0.0707669
0.0707711
0.0707747
0.0707778
0.0707803
0.0707831
0.0707858
0.0707881
0.0707904
0.0707925
0.0707943
0.0707962
0.0707979
0.070799
0.0707996
0.0707999
0.0708
0.0707998
0.0707993
0.0707986
0.0707975
0.0707962
0.0707948
0.0707931
0.0707911
0.0707893
0.0707874
0.0707852
0.0707829
0.0707801
0.0707777
0.0707763
0.0707744
0.0707706
0.0707665
0.0707667
0.0707665
0.0707622
0.0707573
0.0707561
0.0707573
0.0707548
0.0707501
0.0707484
0.0707494
0.0707484
0.070744
0.0707429
0.0707445
0.0707438
0.0707398
0.0707382
0.0707414
0.0707423
0.0707379
0.0707349
0.0707382
0.0707428
0.0707407
0.070735
0.0707359
0.0707416
0.0707451
0.0707407
0.0707365
0.0707395
0.0707466
0.0707491
0.070744
0.0707426
0.0707452
0.0707511
0.0707542
0.0707503
0.0707499
0.0707511
0.0707545
0.0707592
0.0707582
0.0707523
0.0707564
0.0707611
0.070763
0.0707578
0.0707553
0.0707652
0.0707622
0.0707575
0.0707557
0.0707624
0.0707591
0.070753
0.070755
0.0707589
0.070751
0.0707518
0.0707535
0.0707459
0.07075
0.0707501
0.070748
0.0707516
0.0707466
0.0707424
0.0707477
0.0707482
0.0707432
0.0707401
0.0707482
0.0707498
0.0707464
0.0707292
0.0707434
0.0707486
0.070746
0.0707372
0.0707319
0.0707431
0.0707493
0.0707419
0.0707359
0.0707323
0.0707469
0.070747
0.0707371
0.0707341
0.0707344
0.0707462
0.0707463
0.0707303
0.0707258
0.0707488
0.0707452
0.0707348
0.070728
0.0707396
0.0707475
0.0707387
0.0707378
0.0707321
0.0707444
0.0707521
0.0707446
0.0707356
0.0707318
0.0707456
0.0707589
0.0707414
0.0707388
0.0707426
0.0707567
0.0707475
0.0707423
0.070742
0.0707497
0.0707566
0.0707632
0.0707616
0.0707609
0.0707691
0.0707803
0.070792
0.0707802
0.0707653
0.0707643
0.0707616
0.0707527
0.0707433
0.0707451
0.0707324
0.0707358
0.0707359
0.0707211
0.0707176
0.0707249
0.0707132
0.0707124
0.0707139
0.0707059
0.0707079
0.0707028
0.070703
0.0707032
0.0706963
0.0706995
0.0706924
0.070711
0.0707253
0.0707139
0.0707231
0.0707331
0.0707283
0.070747
0.0707568
0.0707679
0.0707721
0.0707939
0.0707993
0.0707872
0.0707832
0.0707725
0.0707652
0.0707605
0.0707631
0.0707512
0.0707533
0.0707515
0.0707465
0.0707523
0.0707488
0.0707499
0.0707514
0.0707538
0.0707561
0.0707595
0.0707642
0.0707733
0.07078
0.070781
0.0707825
0.0707867
0.0707893
0.070793
0.070796
0.0707986
0.0707998
0.0707999
0.0707989
0.0707965
0.0707925
0.0707884
0.070782
0.0707728
0.0707627
0.0707512
0.0707386
0.0707238
0.070707
0.0706888
0.0706686
0.0706471
0.0706241
0.070599
0.0705736
0.0705483
0.0705183
0.0704893
0.0704631
0.0704339
0.070403
0.0703736
0.0703532
0.0703285
0.0702921
0.0702609
0.0702291
0.070193
0.0701549
0.0701243
0.0701027
0.070069
0.0700398
0.070018
0.0699911
0.0699669
0.0699463
0.0699251
0.0699062
0.0698952
0.0698729
0.0698602
0.0698623
0.0698515
0.0698387
0.0698399
0.0698561
0.0698524
0.0698433
0.0698674
0.0698917
0.0698864
0.0699012
0.0699403
0.0699599
0.0699715
0.0699987
0.0700409
0.0700731
0.0701073
0.0701481
0.0702057
0.0702491
0.0703017
0.0703579
0.0705136
0.0704438
0.0704977
0.0705523
0.0706491
0.0707
0.0707669
0.0705504
0.0706514
0.0706918
0.0706932
0.0705791
0.0704847
0.0703587
0.0702765
0.0702258
0.0701533
0.0700688
0.0700333
0.069975
0.0698903
0.0698278
0.0697596
0.0697171
0.0696636
0.0696245
0.0695625
0.0694973
0.0694858
0.0693571
0.0693137
0.0693255
0.0693049
0.0693471
0.069343
0.06935
0.0693879
0.0694152
0.069447
0.0694903
0.0695297
0.0695848
0.0696479
0.0696939
0.0697757
0.0698406
0.0699375
0.0700588
0.0701909
0.0702943
0.0702671
0.0703772
0.0704781
0.0705556
0.0706594
0.070749
0.0707662
0.070693
0.0706582
0.0706292
0.0706106
0.0706065
0.0705919
0.0705978
0.0706057
0.0706209
0.0706358
0.0706601
0.0706752
0.070693
0.070713
0.0707273
0.0707441
0.070755
0.0707667
0.0707738
0.070782
0.0707879
0.0707937
0.0707975
0.0707993
0.0708
0.0707997
0.0707988
0.0707968
0.0707943
0.0707914
0.0707879
0.0707825
0.0707806
0.0707771
0.0707724
0.0707691
0.0707666
0.0707637
0.0707614
0.0707584
0.0707534
0.0707541
0.0707558
0.0707477
0.0707472
0.0707477
0.070743
0.0707543
0.0707435
0.0707389
0.0707559
0.0707442
0.0707513
0.0707423
0.0707446
0.0707534
0.070745
0.0707592
0.0707525
0.070746
0.0707588
0.070766
0.0707551
0.0707562
0.0707605
0.0707702
0.0707525
0.0707565
0.070776
0.0707582
0.0707577
0.0707744
0.0707733
0.070771
0.0707877
0.0707604
0.0707577
0.0707938
0.0707512
0.0707736
0.070775
0.0707785
0.0707862
0.0707482
0.0707933
0.0707944
0.0707579
0.0707749
0.0707766
0.0707776
0.0707924
0.0707655
0.0707568
0.0707939
0.0707915
0.0707639
0.070763
0.0707891
0.0707982
0.0707801
0.0707755
0.0707766
0.0707964
0.0707786
0.0707945
0.0707949
0.0707779
0.0707874
0.0707982
0.0707946
0.0707983
0.0707997
0.0707713
0.0707563
0.0707847
0.0707788
0.0707966
0.0707584
0.0707975
0.0707959
0.0707416
0.0707592
0.0707865
0.0707679
0.0707463
0.0707569
0.070752
0.0707625
0.0707501
0.0707411
0.0707694
0.070719
0.070767
0.0707475
0.0707216
0.0707499
0.0707528
0.0707165
0.0707436
0.0707622
0.0707199
0.070733
0.0707673
0.0707283
0.0707332
0.0707613
0.0707625
0.0707645
0.0707418
0.0707341
0.0707783
0.0707545
0.0707512
0.0707735
0.0707795
0.0707562
0.0707655
0.0707615
0.0707801
0.0707554
0.0707434
0.0707425
0.0707984
0.0707701
0.0707863
0.0707818
0.0707653
0.0707522
0.0707908
0.0707968
0.0707448
0.0707617
0.0707755
0.0707453
0.0707674
0.0707685
0.0707295
0.0707867
0.0707944
0.0707915
0.0707743
0.0707837
0.0707953
0.0707592
0.0707507
0.0707534
0.070764
0.0707317
0.0707616
0.0707256
0.0707307
0.0707249
0.07073
0.0707209
0.0707112
0.0707228
0.0707178
0.0707068
0.0707042
0.0707076
0.0707009
0.0706934
0.0707132
0.0707091
0.0706915
0.0706924
0.0707188
0.070725
0.0706832
0.0706916
0.0707179
0.0707166
0.0707118
0.0706869
0.0707203
0.0707281
0.0707067
0.070687
0.0707251
0.070737
0.0707402
0.0707399
0.0707207
0.0707526
0.0707337
0.0707623
0.0707925
0.0707922
0.0707265
0.0707125
0.0707913
0.0707955
0.0707611
0.0707511
0.070782
0.0707642
0.0707484
0.070759
0.0707585
0.0707452
0.0707463
0.0707463
0.0707567
0.0707506
0.070753
0.070763
0.0707674
0.0707713
0.0707763
0.0707786
0.070782
0.0707881
0.0707931
0.0707968
0.0707993
0.0708
0.0707984
0.0707946
0.0707874
0.0707784
0.0707634
0.0707437
0.0707269
0.070694
0.0706539
0.0706164
0.0705923
0.0705292
0.0704635
0.070424
0.0703469
0.0702645
0.0702072
0.0701251
0.0700176
0.0699468
0.0698715
0.0697625
0.069656
0.0695809
0.0694778
0.0693649
0.0692774
0.0692018
0.0691228
0.0690129
0.0689032
0.0688277
0.0687581
0.0686802
0.0686146
0.0685439
0.0684868
0.068437
0.0683931
0.0683425
0.0683098
0.0682942
0.0682633
0.0682996
0.0683291
0.0683393
0.0684295
0.0685344
0.0686471
0.0687732
0.068791
0.0688398
0.0689769
0.0690903
0.0691496
0.0691781
0.0692746
0.0695022
0.0696892
0.0704164
0.0699354
0.0701476
0.0701447
0.0702062
0.0704419
0.0703172
0.0697421
0.070592
0.0704903
0.0700744
0.0697596
0.0694075
0.0691419
0.0688791
0.0686538
0.068433
0.0682031
0.0680437
0.0678463
0.0676507
0.0674056
0.0673189
0.0673756
0.0674151
0.0673691
0.0673041
0.0673179
0.0673873
0.0674403
0.0675006
0.0676416
0.0677329
0.0678582
0.0680817
0.0682352
0.0684918
0.0687596
0.0690794
0.0696284
0.0696978
0.0698244
0.0701583
0.0703807
0.0706149
0.0707781
0.0706252
0.0704915
0.0704571
0.0704102
0.0703918
0.0703984
0.0704098
0.0704629
0.0705109
0.070553
0.0705992
0.0706431
0.0706864
0.0707165
0.0707408
0.0707591
0.0707738
0.070787
0.0707959
0.0707996
0.0707999
0.0707983
0.0707937
0.0707879
0.0707769
0.0707705
0.0707614
0.070752
0.0707436
0.070738
0.07073
0.0707174
0.0707085
0.0707078
0.0707045
0.0706938
0.0706873
0.0706948
0.0706886
0.0706677
0.0706698
0.0706887
0.0706896
0.0706716
0.0706665
0.0706765
0.0706762
0.0706949
0.0706968
0.0706797
0.0706976
0.0707143
0.0707052
0.0707126
0.0707222
0.0707389
0.0707476
0.0707335
0.0707305
0.0707545
0.0707734
0.0707578
0.0707449
0.0707594
0.0707551
0.0707444
0.0707752
0.0707969
0.0707948
0.0707877
0.0707644
0.0707291
0.070746
0.0707914
0.0707941
0.0707069
0.0707412
0.070781
0.0707926
0.0707985
0.0706842
0.0707122
0.0706314
0.0707811
0.0706808
0.0707717
0.0707301
0.0706988
0.0707051
0.0707516
0.0707225
0.0707783
0.0707239
0.0707074
0.0706888
0.0707589
0.0707152
0.0707422
0.0706924
0.0707268
0.0706499
0.0706962
0.0707472
0.0705968
0.0706324
0.0706649
0.070699
0.0706499
0.070666
0.0706538
0.070645
0.0706492
0.0706597
0.0706636
0.0706662
0.0706965
0.0707249
0.0706831
0.0706619
0.0706901
0.0707035
0.070703
0.0707512
0.0707903
0.0706573
0.0706422
0.0707928
0.0707207
0.070747
0.0706625
0.0707652
0.0707717
0.0707732
0.0707598
0.0707912
0.0707758
0.0707974
0.0707946
0.0707372
0.0707439
0.0706885
0.070783
0.0707755
0.0707785
0.0707211
0.070797
0.0707267
0.0707839
0.0707919
0.0707443
0.0707234
0.0705823
0.0707931
0.0707733
0.0707586
0.0706657
0.0705734
0.0704517
0.0702454
0.0706717
0.0706124
0.07028
0.0704134
0.0707828
0.0704272
0.0706785
0.070524
0.0706798
0.0703423
0.0702877
0.070442
0.0707791
0.0707515
0.0704255
0.070555
0.0699471
0.0705611
0.0693828
0.0706685
0.070162
0.0700577
0.070778
0.0703011
0.0704437
0.0703463
0.0707664
0.0705448
0.0704419
0.0702278
0.0707506
0.0702949
0.0691279
0.0695847
0.0701858
0.0705735
0.0697533
0.069868
0.0704405
0.0703431
0.0698218
0.0703866
0.0698144
0.0701252
0.0706408
0.0698546
0.0696163
0.0700107
0.0701589
0.0702666
0.0705188
0.070139
0.0704603
0.0702936
0.0700959
0.0702654
0.0703123
0.0698813
0.0707864
0.0701097
0.0702237
0.0703304
0.0692447
0.0695724
0.0705603
0.0683318
0.0693941
0.0697088
0.067825
0.0687715
0.0704359
0.0695822
0.0703957
0.0704696
0.0699878
0.0697391
0.0696824
0.069844
0.070298
0.0699383
0.0703368
0.0702839
0.07078
0.0707976
0.0706795
0.0701569
0.0704741
0.0707494
0.0704768
0.0705485
0.0704859
0.0701368
0.0703345
0.0701407
0.0705259
0.0707682
0.0699988
0.069824
0.0697566
0.0697761
0.0702143
0.0701126
0.0702446
0.0705947
0.0706642
0.0705429
0.0706201
0.0705807
0.0706258
0.070388
0.0706662
0.0702666
0.0701257
0.0704262
0.0697513
0.0703982
0.0707826
0.070004
0.0697115
0.069225
0.0701844
0.0701391
0.0699124
0.0699607
0.0698658
0.0699397
0.0699708
0.0701057
0.0703284
0.0702704
0.0704728
0.0703652
0.0704515
0.0705683
0.0707025
0.0706516
0.070675
0.0707272
0.0707602
0.0707652
0.0707911
0.0707833
0.0707909
0.0707968
0.0707985
0.0707986
0.0707995
0.0707996
0.0708
0.0707999
0.0707999
0.0708
0.0707998
0.0708
0.0708
0.0707997
0.0707997
0.0707956
0.0707997
0.0707986
0.0707915
0.0707997
0.0707677
0.0707647
0.0707831
0.0707846
0.0707388
0.0707664
0.0706501
0.0707227
0.0707754
0.0707451
0.0706515
0.0707862
0.0707948
0.0707796
0.0706017
0.0707536
0.0706515
0.0707826
0.0707061
0.0707944
0.0707774
0.0707744
0.0707891
0.0708
0.0707911
0.0707564
0.0706877
0.0705411
0.0704584
0.0700616
0.0700586
0.070017
0.0703449
0.0705766
0.0707946
0.0704806
0.0704459
0.070327
0.0704995
0.0704866
0.0704168
0.0706063
0.0706646
0.0706096
0.0706686
0.0706356
0.0705765
0.0707176
0.0705347
0.070496
0.0700602
0.0698321
0.0695655
0.069325
0.0690437
0.0685113
0.0692954
0.0682603
0.0693532
0.0703045
0.0691157
0.0677545
0.0707983
0.0691322
0.0691869
0.0693174
0.0695314
0.0699906
0.0705044
0.0702141
0.070199
0.0707668
0.0701888
0.0707154
0.0699734
0.0706002
0.0695156
0.0703123
0.070391
0.0702292
0.0695421
0.0705598
0.0702802
0.0698523
0.0703763
0.0705091
0.0699163
0.0701793
0.0700992
0.0707438
0.0700324
0.0699418
0.0697014
0.0707039
0.0707662
0.070403
0.0703152
0.0705692
0.070549
0.0703173
0.0704507
0.0703189
0.0701737
0.0702756
0.0704323
0.0700606
0.0693122
0.0695743
0.0706856
0.070452
0.0691867
0.0702944
0.0696488
0.070739
0.0696187
0.0702737
0.0705095
0.0702898
0.0692497
0.0706533
0.0707591
0.0707789
0.0704763
0.0702112
0.0706746
0.0704572
0.0706743
0.0706585
0.07019
0.0702322
0.0695716
0.0704068
0.0694871
0.0707316
0.0706275
0.0700922
0.0704831
0.0695013
0.070622
0.0707865
0.0707713
0.0701488
0.0704409
0.0701309
0.0702481
0.070052
0.070686
0.0699822
0.0702541
0.0707322
0.069462
0.0700929
0.0700514
0.0699466
0.0704081
0.0705518
0.0702793
0.0700415
0.0704175
0.0704165
0.070282
0.0703829
0.070577
0.0707398
0.0699519
0.0698481
0.0693459
0.0695
0.0698777
0.0701181
0.0705662
0.0707758
0.0699377
0.0706471
0.0703338
0.0704712
0.0705014
0.0705972
0.0706165
0.0705789
0.0707086
0.070179
0.0700704
0.0700013
0.070317
0.0702317
0.070125
0.06964
0.0695045
0.0696787
0.069105
0.0686284
0.0689026
0.0689372
0.0696043
0.0698296
0.0692618
0.0696214
0.0690583
0.0691506
0.0698974
0.0697115
0.0697135
0.0700661
0.0701915
0.0698908
0.0692463
0.0697512
0.0700019
0.0705229
0.0702349
0.0699888
0.0706206
0.0707199
0.0706824
0.0704953
0.0704735
0.0702626
0.0707073
0.0707257
0.0705687
0.070519
0.0706769
0.0707786
0.0703691
0.0706024
0.0705209
0.0705627
0.0705706
0.0705056
0.0705886
0.0706872
0.0704605
0.0704989
0.0706315
0.0707416
0.0707404
0.0706071
0.070789
0.0707828
0.0705077
0.0706759
0.070522
0.0705536
0.0707549
0.0707427
0.0706129
0.0706918
0.0707979
0.0707255
0.0707948
0.0706157
0.0706979
0.0705804
0.0705674
0.0704153
0.0705393
0.0707018
0.0705514
0.0707106
0.0707698
0.0707962
0.0699102
0.0706548
0.0707229
0.0706088
0.0703427
0.070411
0.0705476
0.0703258
0.0704143
0.0700215
0.0703336
0.0694358
0.0700938
0.069608
0.0702591
0.0704331
0.0702745
0.0700541
0.0701712
0.0700237
0.0702326
0.0704687
0.0702796
0.0703364
0.0707824
0.070585
0.0707345
0.0706285
0.0707744
0.0707033
0.0707993
0.0707689
0.0707918
0.0707916
0.0707986
0.0707995
0.0708
0.0707996
0.0707949
0.0707987
0.0707876
0.070798
0.0707999
0.0707922
0.0707967
0.070796
0.0707921
0.0707996
0.0707962
0.0707914
0.0707959
0.0707837
0.0707979
0.0707991
0.0707984
0.0707977
0.0707962
0.0707978
0.070798
0.0707963
0.0707992
0.0708
0.070797
0.0707968
0.0707711
0.0707431
0.0707457
0.0707866
0.0707315
0.0707996
0.0707526
0.0707701
0.0707747
0.0707344
0.0706886
0.0707425
0.0706207
0.0707472
0.0707357
0.0707802
0.0706958
0.0706388
0.0702972
0.0707085
0.0705285
0.0704277
0.0706569
0.0696286
0.0702066
0.0694012
0.0695036
0.0698308
0.0701256
0.0697402
0.0692788
0.0696501
0.0704817
0.0704343
0.070059
0.0701744
0.0701544
0.0705851
0.0703817
0.0706732
0.0704034
0.0705699
0.0704017
0.0703847
0.0707247
0.0706471
0.0705312
0.0701881
0.0700494
0.0701472
0.0706491
0.0707924
0.0707102
0.0707732
0.0706675
0.0706316
0.0705507
0.0706863
0.0706155
0.0706449
0.0703139
0.0704352
0.0705463
0.070722
0.0705844
0.0702822
0.0700089
0.0706431
0.0702355
0.070341
0.0707331
0.0702526
0.0707126
0.0706071
0.070789
0.0704145
0.0704498
0.0706515
0.0707661
0.0707146
0.0701071
0.0704169
0.0705665
0.070628
0.0702231
0.0703024
0.0706519
0.0706605
0.0707962
0.0707106
0.0707513
0.0707549
0.0704071
0.0707723
0.070174
0.0707034
0.0705769
0.0705243
0.0704947
0.0707591
0.0706366
0.0707242
0.0700928
0.0704293
0.0698291
0.0705206
0.0705716
0.0694812
0.0698677
0.069673
0.0702189
0.0705365
0.0705994
0.070357
0.0703389
0.0703354
0.070599
0.0704976
0.0706645
0.0703829
0.0705988
0.0701008
0.0707346
0.0703766
0.0706394
0.0707733
0.0707412
0.0703582
0.0706903
0.0699454
0.0702457
0.0702131
0.0699597
0.0692669
0.0696821
0.0704759
0.0706187
0.0700365
0.0696767
0.0697375
0.0704378
0.0693589
0.0700062
0.0702684
0.0702579
0.0700792
0.0705511
0.0707028
0.07045
0.070301
0.0707559
0.0705717
0.0700847
0.070774
0.0704352
0.070125
0.0703207
0.0701606
0.0704982
0.0706934
0.0707932
0.0704488
0.0702637
0.0702362
0.0707363
0.0707419
0.0706168
0.0704094
0.0706535
0.0705447
0.0707298
0.0704626
0.0707093
0.0706117
0.0701134
0.0702311
0.0701765
0.0705095
0.0695747
0.0697153
0.069484
0.0695824
0.0702525
0.0705646
0.0707344
0.0697902
0.0701791
0.070779
0.0689328
0.0698344
0.0701568
0.069437
0.0705091
0.0705889
0.0701885
0.0686825
0.0693484
0.0705344
0.0704728
0.0702804
0.0693973
0.0690362
0.0694167
0.0704148
0.0669137
0.0688745
0.070515
0.0693392
0.0695184
0.0695297
0.0702942
0.0695152
0.0703796
0.0699878
0.0701656
0.0705523
0.0701788
0.0705914
0.0703162
0.0706041
0.0700425
0.0707287
0.07072
0.0705715
0.0707885
0.0706041
0.0707972
0.0707625
0.0708
0.0707497
0.0707317
0.0707506
0.0706713
0.0699593
0.0704425
0.0706333
0.0705458
0.0707265
0.0707997
0.0707999
0.0707881
0.070534
0.0693905
0.0704669
0.0703122
0.0700749
0.0706507
0.0707472
0.0707897
0.0705441
0.0680976
0.0702735
0.0696992
0.0691827
0.0691633
0.0700853
0.0707973
0.0702806
0.0685831
0.0687806
0.0688855
0.0672196
0.0667173
0.070064
0.070255
0.0695636
0.0687809
0.070285
0.0701015
0.0704407
0.0693036
0.0707421
0.0704989
0.0703466
0.0707129
0.0689592
0.0697665
0.0704402
0.0700959
0.0695839
0.0706534
0.0689841
0.068953
0.0697705
0.0674367
0.0694627
0.0697907
0.0701731
0.0693417
0.0694539
0.0707987
0.0680773
0.068895
0.070123
0.0688641
0.0675912
0.0707031
0.0689055
0.0702683
0.0689506
0.0686983
0.0703804
0.0704411
0.0698631
0.0700432
0.0704277
0.0697467
0.0699084
0.0706156
0.0702568
0.0689566
0.0700862
0.0697148
0.0696225
0.0698051
0.0702756
0.0700632
0.0699514
0.0692792
0.0701946
0.0693099
0.0705534
0.0686364
0.068723
0.0707625
0.0693204
0.0694137
0.0703683
0.0703492
0.0700213
0.0707619
0.0706182
0.070681
0.0700467
0.0704776
0.0697265
0.0700563
0.0704375
0.0697448
0.0692084
0.0696223
0.0692808
0.0697431
0.0701607
0.0701207
0.069755
0.0686179
0.0705428
0.0704183
0.0694852
0.0695438
0.0688308
0.0696892
0.0691724
0.0702425
0.0704747
0.069795
0.0687417
0.0700733
0.0679862
0.0698304
0.0689487
0.0702278
0.0691462
0.0699654
0.068845
0.0706375
0.0702385
0.0706411
0.0698088
0.0704507
0.0707561
0.0693302
0.0694845
0.0673744
0.0704117
0.0680505
0.0684105
0.0704867
0.0668037
0.0705373
0.0696384
0.0698285
0.0675636
0.0701508
0.0685018
0.0674688
0.0706908
0.066438
0.0700682
0.0684476
0.0665002
0.0696444
0.067021
0.0667585
0.070001
0.0691593
0.0671249
0.0702542
0.0689451
0.0669254
0.0698089
0.0690026
0.067803
0.0678817
0.0684838
0.0692102
0.068509
0.0682807
0.0692358
0.0704968
0.0684389
0.070203
0.0695427
0.0706789
0.0688814
0.0703237
0.0682988
0.0701312
0.0700435
0.0700528
0.0678944
0.0693046
0.0687237
0.0692984
0.068908
0.069959
0.069994
0.0693664
0.0700739
0.0662298
0.0631354
0.0630831
0.0672871
0.063108
0.0672615
0.0644416
0.0639134
0.0664127
0.0670175
0.0662252
0.0704535
0.066896
0.0667705
0.0692406
0.0679732
0.0706522
0.0656447
0.0667909
0.0696897
0.0675982
0.0688848
0.0690205
0.0680057
0.0682038
0.0697087
0.065634
0.0676464
0.0699261
0.0693314
0.0681865
0.0697706
0.0679459
0.0682609
0.0684547
0.0686697
0.068064
0.0704475
0.0703122
0.0701512
0.0700664
0.0680567
0.0697546
0.0695756
0.0679682
0.069617
0.07039
0.070137
0.0693154
0.0689281
0.0685467
0.0685918
0.0696867
0.067408
0.0688466
0.0691301
0.0693803
0.0679429
0.0688192
0.0672144
0.0693299
0.0691116
0.070498
0.0690414
0.0686604
0.0706197
0.070544
0.07071
0.0689851
0.0700653
0.0698064
0.0704584
0.0694882
0.0701478
0.0701691
0.0703259
0.0693377
0.0698764
0.0706287
0.0704323
0.0707597
0.0706615
0.0696463
0.0702043
0.0706249
0.0707535
0.0707683
0.0704176
0.070669
0.070725
0.0706977
0.0704689
0.0703723
0.0699238
0.0699566
0.0702451
0.0703269
0.0707923
0.0707297
0.0693609
0.069121
0.069168
0.0691613
0.0705689
0.0704665
0.0695219
0.0693057
0.0702818
0.0706827
0.0705885
0.0707142
0.0706118
0.0705055
0.0707487
0.0705726
0.0702284
0.069768
0.0701542
0.0684237
0.0693884
0.0706046
0.0708
0.069578
0.0699126
0.0708
0.0708
0.0708
0.0708
0.0708
0.0708
0.0708
0.0708
0.0708
0.0708
0.0708
0.0708
0.0708
0.0708
0.0708
0.0708
0.0708
0.0708
0.0708
0.0708
0.0708
0.0708
0.0708
0.0708
0.0708
0.0708
0.0708
0.0708
0.0708
0.0708
0.0708
0.0708
0.0708
0.0708
0.0708
0.0708
0.0708
0.0708
0.0708
0.0708
0.0708
0.0708
0.0708
0.0708
0.0708
0.0708
0.0708
0.0708
0.0708
0.0708
0.0708
0.0708
0.0708
0.0708
0.0708
0.0708
0.0708
0.0708
0.0708
0.0708
0.0708
0.0708
0.0708
0.0708
0.0708
0.0708
0.0708
0.0708
0.0708
0.0708
0.0708
0.0708
0.0708
0.0708
0.0708
0.0708
0.0708
0.0708
0.0708
0.0708
0.0708
0.0708
0.0708
0.0708
0.0708
0.0708
0.0708
0.0708
0.0708
0.0708
0.0708
0.0708
0.0708
0.0708
0.0708
0.0708
0.0708
0.0708
0.0708
0.0708
0.0708
0.0708
0.0708
0.0708
0.0708
0.0708
0.0708
0.0708
0.0708
0.0708
0.0708
0.0708
0.0708
0.0708
0.0708
0.0708
0.0708
0.0708
0.0708
0.0708
0.0708
0.0708
0.0708
0.0708
0.0708
0.0708
0.0708
0.0708
0.0708
0.0708
0.0708
0.0708
0.0708
0.0708
0.0708
0.0708
0.0708
0.0708
0.0708
0.0708
0.0708
0.0708
0.0708
0.0708
0.0708
0.0708
0.0708
0.0708
0.0708
0.0708
0.0708
0.0708
0.0708
0.0708
0.0708
0.0708
0.0708
0.0708
0.0708
0.0708
0.0708
0.0708
0.0708
0.0708
0.0708
0.0708
0.0708
0.0708
0.0708
0.0708
0.0708
0.0708
0.0708
0.0708
0.0708
0.0708
0.0708
0.0708
0.0708
0.0708
0.0708
0.0708
0.0708
0.0708
0.0708
0.0708
0.0708
0.0708
0.0708
0.0708
0.0708
0.0708
0.0708
0.0708
0.0708
0.0708
0.0708
0.0708
0.0708
0.0708
0.0708
0.0708
0.0708
0.0708
0.0708
0.0708
0.0708
0.0708
0.0708
0.0708
0.0708
0.0708
0.0708
0.0708
0.0708
0.0708
0.0708
0.0708
0.0708
0.0708
0.0707999
0.0707999
0.0707999
0.0707999
0.0707999
0.0707999
0.0707999
0.0707999
0.0707999
0.0707999
0.0707999
0.0707999
0.0707999
0.0707999
0.0707999
0.0707999
0.0707999
0.0707999
0.0707999
0.0707999
0.0707999
0.0707999
0.0707999
0.0707999
0.0707999
0.0707999
0.0707999
0.0707999
0.0707999
0.0707999
0.0707999
0.0708
0.0708
0.0708
0.0708
0.0707999
0.0707999
0.0707998
0.0707998
0.0707997
0.0707997
0.0707996
0.0707996
0.0707995
0.0707995
0.0707994
0.0707994
0.0707993
0.0707993
0.0707996
0.070799
0.0707977
0.0707991
0.070798
0.0707978
0.070795
0.0707946
0.0707895
0.0707851
0.0707851
0.0707895
0.0707913
0.0707913
0.0707913
0.0707908
0.0707903
0.0707898
0.0707892
0.0707886
0.0707879
0.0707872
0.0707864
0.0707856
0.0707847
0.0707838
0.0707828
0.0707818
0.0707807
0.0707795
0.0707783
0.0707769
0.0707755
0.0707741
0.0707728
0.0707688
0.0707662
0.0707363
0.0703048
0.0701531
0.0706906
0.0707614
0.0707488
0.0707531
0.070747
0.0707448
0.0707399
0.0707355
0.0707299
0.0707238
0.0707164
0.0707076
0.0706966
0.0706829
0.0706657
0.0706442
0.0706175
0.0705845
0.0705467
0.0705101
0.0704777
0.0704519
0.0704374
0.0704232
0.0704077
0.0703876
0.0703682
0.0703633
0.0703684
0.0703847
0.0704025
0.0704402
0.0705177
0.0706407
0.0707759
0.0705388
0.0703179
0.0702551
0.0704271
0.0706373
0.0707657
0.0707666
0.0707193
0.070686
0.070664
0.070655
0.0706618
0.070681
0.0707018
0.0707157
0.0707191
0.0707237
0.0707346
0.0707486
0.070763
0.0707766
0.0707879
0.0707959
0.0707998
0.070799
0.0707937
0.0707841
0.0707708
0.0707553
0.0707398
0.0707255
0.0707038
0.0706788
0.0706514
0.0706258
0.0706052
0.0705995
0.0705979
0.0705996
0.0706018
0.0706071
0.070641
0.0706582
0.0706824
0.0707117
0.0707577
0.0707777
0.0707878
0.0707473
0.0706513
0.0705311
0.0705585
0.0707982
0.0705958
0.0705432
0.0704803
0.070406
0.0705806
0.0707725
0.0707749
0.0707425
0.0706975
0.0706569
0.0706462
0.0706392
0.0706174
0.0706623
0.0707044
0.0707561
0.0707931
0.0707876
0.0707896
0.0707964
0.0707954
0.0707903
0.0707804
0.0707852
0.0707854
0.070768
0.0707639
0.0707689
0.0707658
0.0707591
0.0707532
0.0707542
0.070756
0.0707508
0.0707443
0.0707411
0.0707468
0.0707475
0.070739
0.0707486
0.070768
0.0707673
0.0707655
0.0707814
0.0707932
0.0707807
0.0707847
0.070768
0.0707366
0.0707099
0.0706975
0.0706926
0.0706639
0.0706223
0.0706106
0.0706132
0.0705789
0.0705405
0.0705306
0.0705278
0.0705029
0.0704932
0.0704473
0.0705028
0.0703002
0.0705901
0.0699755
0.0705119
0.0688548
0.0695871
0.0666162
0.0659431
0.0651849
0.0708
0.0708
0.0708
0.0708
0.0708
0.0708
0.0708
0.0708
0.0708
0.0708
0.0708
0.0708
0.0708
0.0708
0.0708
0.0708
0.0708
0.0708
0.0708
0.0708
0.0708
0.0708
0.0708
0.0708
0.0708
0.0708
0.0708
0.0708
0.0708
0.0708
0.0708
0.0708
0.0708
0.0708
0.0708
0.0708
0.0708
0.0708
0.0708
0.0708
0.0708
0.0708
0.0708
0.0708
0.0708
0.0708
0.0708
0.0708
0.0708
0.0708
0.0708
0.0708
0.0708
0.0708
0.0708
0.0708
0.0708
0.0708
0.0708
0.0708
0.0708
0.0708
0.0708
0.0708
0.0708
0.0708
0.0708
0.0708
0.0708
0.0708
0.0708
0.0708
0.0708
0.0708
0.0708
0.0708
0.0708
0.0708
0.0708
0.0708
0.0708
0.0708
0.0708
0.0708
0.0708
0.0708
0.0708
0.0708
0.0708
0.0708
0.0708
0.0708
0.0708
0.0708
0.0708
0.0708
0.0708
0.0708
0.0708
0.0708
0.0708
0.0708
0.0708
0.0708
0.0708
0.0708
0.0708
0.0708
0.0708
0.0708