/*--------------------------------*- C++ -*----------------------------------*\
| =========                 |                                                 |
| \\      /  F ield         | OpenFOAM: The Open Source CFD Toolbox           |
|  \\    /   O peration     | Version:  v1812                                 |
|   \\  /    A nd           | Web:      www.OpenFOAM.com                      |
|    \\/     M anipulation  |                                                 |
\*---------------------------------------------------------------------------*/
FoamFile
{
    version     2.0;
    format      ascii;
    class       volScalarField;
    location    "120";
    object      fBeta;
}
// * * * * * * * * * * * * * * * * * * * * * * * * * * * * * * * * * * * * * //

dimensions      [0 0 0 0 0 0 0];


internalField   nonuniform List<scalar> 
212248
(
0.998188
0.999722
0.999998
0.999999
0.999999
0.999999
0.999988
0.999964
0.999987
0.999995
0.999989
0.99998
0.999993
1
0.999991
0.999974
0.999983
0.999985
0.999987
0.999989
0.999992
0.999995
0.999998
0.999998
0.999994
0.99999
0.999985
0.999979
0.999974
0.999967
0.99996
0.999953
0.999945
0.999936
0.999927
0.999918
0.999908
0.999897
0.999886
0.999874
0.999862
0.999849
0.999835
0.999821
0.999806
0.999791
0.999775
0.999759
0.999742
0.999724
0.999706
0.999687
0.999668
0.999647
0.999627
0.999605
0.999582
0.999557
0.999532
0.999507
0.999481
0.999455
0.999429
0.999404
0.99938
0.999359
0.99934
0.999323
0.999317
0.999322
0.999316
0.999306
0.999295
0.999283
0.99927
0.999255
0.999241
0.999225
0.99921
0.999193
0.999176
0.999158
0.999139
0.999119
0.999097
0.999075
0.99905
0.999026
0.999026
0.99868
0.995743
0.993088
0.998691
0.999752
0.999758
0.999362
0.999177
0.999067
0.999001
0.998959
0.998931
0.998911
0.998898
0.998889
0.998884
0.998882
0.998882
0.998884
0.998888
0.998893
0.9989
0.998909
0.998919
0.998931
0.998943
0.998957
0.998973
0.998989
0.999007
0.999026
0.999046
0.999067
0.99909
0.999113
0.999138
0.999161
0.999185
0.999212
0.999241
0.999271
0.999303
0.999335
0.999368
0.999402
0.999436
0.999471
0.999506
0.999541
0.999577
0.99961
0.999643
0.999675
0.999707
0.999738
0.999768
0.999797
0.999824
0.99985
0.999873
0.999895
0.999914
0.999932
0.999947
0.99996
0.99997
0.999979
0.999986
0.999992
0.999996
0.999998
1
1
0.999999
0.999998
0.999996
0.99998
0.999985
0.999987
0.999996
1
0.999996
0.999999
0.999999
0.999997
0.999993
0.999988
0.999981
0.999972
0.999962
0.99995
0.999935
0.999918
0.999897
0.999875
0.999854
0.999831
0.999806
0.999779
0.99975
0.99972
0.999687
0.999653
0.999617
0.999579
0.999539
0.999497
0.999454
0.999408
0.999361
0.999312
0.999261
0.999208
0.999154
0.999098
0.99904
0.998981
0.99892
0.998857
0.998793
0.998728
0.998663
0.998597
0.998529
0.998461
0.998392
0.998323
0.998253
0.998182
0.998111
0.998039
0.997968
0.997896
0.997824
0.997753
0.997681
0.99761
0.99754
0.99747
0.9974
0.997332
0.997264
0.997197
0.997132
0.997067
0.997005
0.996943
0.996884
0.996826
0.99677
0.996716
0.996664
0.996615
0.996569
0.996525
0.996484
0.996448
0.996414
0.996385
0.996359
0.996335
0.996315
0.996299
0.996287
0.996279
0.996275
0.996275
0.996281
0.99629
0.996303
0.996318
0.996336
0.996354
0.996368
0.996372
0.996354
0.996287
0.996097
0.995741
0.995234
0.994122
0.994073
0.998399
0.992414
0.996641
0.998168
0.997471
0.996897
0.996334
0.996273
0.995747
0.995131
0.99503
0.994792
0.994396
0.99409
0.993795
0.993508
0.993228
0.992953
0.992684
0.99242
0.992161
0.991906
0.991657
0.991412
0.991171
0.990936
0.990706
0.99048
0.99026
0.990046
0.989838
0.989633
0.98943
0.989295
0.98888
0.986071
0.93032
0.935842
0.989248
0.988163
0.988242
0.988005
0.987943
0.987825
0.987752
0.987677
0.987623
0.987579
0.987551
0.987538
0.98754
0.987558
0.987588
0.987635
0.98771
0.987823
0.98798
0.988179
0.988393
0.988615
0.988864
0.989114
0.989366
0.989625
0.989891
0.990199
0.990518
0.990832
0.991109
0.991393
0.991756
0.992143
0.992487
0.992674
0.992658
0.992537
0.992682
0.993064
0.993436
0.993711
0.993862
0.993861
0.99364
0.993039
0.991897
0.990324
0.989243
0.990051
0.992705
0.99489
0.996332
0.997348
0.99812
0.998711
0.999188
0.99959
0.999962
0.999573
0.999385
0.999198
0.999017
0.998829
0.998689
0.998567
0.998538
0.998511
0.998518
0.998529
0.998513
0.998525
0.998533
0.998579
0.99863
0.998685
0.998782
0.998856
0.998918
0.99902
0.999133
0.999251
0.99933
0.999441
0.999552
0.999666
0.999743
0.999767
0.999801
0.999845
0.999889
0.999923
0.999958
0.999983
0.999996
1
0.999994
0.999977
0.999951
0.999914
0.999862
0.99983
0.999737
0.999654
0.999557
0.999454
0.999347
0.999225
0.999093
0.998958
0.998813
0.998643
0.998477
0.998334
0.998157
0.997969
0.997797
0.997632
0.997467
0.997281
0.997097
0.996942
0.996789
0.996634
0.996456
0.99632
0.996242
0.996094
0.99592
0.995871
0.995826
0.995693
0.995559
0.99553
0.995619
0.995561
0.995415
0.995404
0.99557
0.995683
0.995532
0.995447
0.995731
0.995978
0.995796
0.995774
0.996101
0.996349
0.996337
0.996457
0.996304
0.996849
0.995586
0.998905
0.993108
0.994435
0.983489
0.979481
0.961637
0.931445
0.971497
0.892097
0.911881
0.982998
0.975713
0.992236
0.997954
0.998972
0.998508
0.999312
0.999776
0.997309
0.997126
0.999246
0.998491
0.997772
0.997614
0.998634
0.999213
0.999031
0.998067
0.997608
0.997344
0.996769
0.996263
0.996055
0.995842
0.995481
0.995037
0.994827
0.994679
0.994372
0.99408
0.993913
0.9938
0.99352
0.992896
0.992709
0.992963
0.992826
0.992759
0.992746
0.992728
0.992691
0.992735
0.992819
0.992902
0.992937
0.993161
0.993275
0.993409
0.993565
0.993821
0.994007
0.994204
0.994409
0.994706
0.994987
0.99519
0.995477
0.995754
0.996095
0.996431
0.996715
0.997181
0.997624
0.998193
0.998385
0.998332
0.998623
0.998912
0.999239
0.999417
0.999615
0.999841
0.999937
0.999788
0.999695
0.999614
0.999536
0.999458
0.999451
0.999432
0.999417
0.99945
0.99948
0.999533
0.999591
0.999642
0.999686
0.999721
0.999761
0.9998
0.999832
0.999864
0.999895
0.99992
0.999946
0.99997
0.999986
0.999995
0.999999
1
0.999997
0.999991
0.99998
0.999965
0.999947
0.999927
0.999902
0.999874
0.999849
0.999822
0.99979
0.999759
0.999719
0.999686
0.999666
0.999639
0.999585
0.999527
0.99953
0.999527
0.999466
0.999396
0.99938
0.999397
0.999361
0.999296
0.999271
0.999285
0.999272
0.999209
0.999194
0.999216
0.999206
0.99915
0.999128
0.999172
0.999185
0.999123
0.999081
0.999127
0.999192
0.999163
0.999083
0.999094
0.999175
0.999225
0.999163
0.999104
0.999146
0.999245
0.999281
0.999208
0.99919
0.999226
0.99931
0.999353
0.999298
0.999292
0.999309
0.999358
0.999424
0.99941
0.999326
0.999384
0.999451
0.999478
0.999404
0.999369
0.999508
0.999465
0.9994
0.999375
0.999469
0.999422
0.999336
0.999365
0.999419
0.999308
0.999319
0.999343
0.999236
0.999294
0.999295
0.999265
0.999316
0.999246
0.999186
0.999261
0.999268
0.999198
0.999154
0.999268
0.999291
0.999242
0.999
0.999201
0.999275
0.999238
0.999113
0.999038
0.999197
0.999284
0.99918
0.999094
0.999044
0.99925
0.999252
0.999112
0.99907
0.999073
0.99924
0.999241
0.999015
0.998952
0.999277
0.999227
0.999079
0.998983
0.999147
0.999259
0.999134
0.999122
0.999042
0.999215
0.999324
0.999218
0.999091
0.999037
0.999231
0.99942
0.999173
0.999135
0.999189
0.999389
0.999258
0.999185
0.999181
0.999289
0.999387
0.99948
0.999458
0.999447
0.999563
0.999721
0.999887
0.99972
0.999509
0.999496
0.999458
0.999332
0.9992
0.999225
0.999045
0.999093
0.999095
0.998885
0.998835
0.99894
0.998775
0.998762
0.998783
0.998671
0.9987
0.998628
0.998631
0.998632
0.998535
0.998581
0.99848
0.998743
0.998945
0.998783
0.998913
0.999054
0.998987
0.999252
0.999389
0.999547
0.999606
0.999914
0.99999
0.999819
0.999763
0.999612
0.999509
0.999443
0.999479
0.999311
0.999341
0.999315
0.999245
0.999326
0.999277
0.999292
0.999313
0.999347
0.999379
0.999428
0.999494
0.999622
0.999717
0.999731
0.999753
0.999812
0.999849
0.999902
0.999943
0.99998
0.999997
0.999999
0.999984
0.999951
0.999895
0.999836
0.999746
0.999616
0.999474
0.999311
0.999132
0.998923
0.998686
0.998429
0.998144
0.99784
0.997515
0.997161
0.996803
0.996445
0.996021
0.995612
0.995242
0.994829
0.994393
0.993978
0.99369
0.99334
0.992826
0.992385
0.991936
0.991427
0.990888
0.990456
0.990152
0.989675
0.989262
0.988955
0.988575
0.988232
0.987942
0.987642
0.987376
0.987221
0.986905
0.986726
0.986756
0.986603
0.986422
0.986439
0.986669
0.986616
0.986487
0.986828
0.987171
0.987096
0.987305
0.987857
0.988134
0.988298
0.988682
0.989278
0.989733
0.990216
0.990793
0.991605
0.992219
0.992962
0.993755
0.995955
0.994969
0.99573
0.996502
0.997868
0.998588
0.999533
0.996474
0.997901
0.998472
0.998491
0.99688
0.995547
0.993767
0.992605
0.99189
0.990866
0.989673
0.989171
0.988347
0.987151
0.986268
0.985305
0.984705
0.983949
0.983397
0.982521
0.9816
0.981438
0.97962
0.979007
0.979174
0.978883
0.979479
0.97942
0.97952
0.980055
0.980441
0.98089
0.981501
0.982058
0.982836
0.983728
0.984377
0.985532
0.986449
0.987817
0.989531
0.991398
0.992858
0.992474
0.994028
0.995453
0.996549
0.998015
0.999279
0.999523
0.998488
0.997997
0.997588
0.997325
0.997267
0.997061
0.997144
0.997255
0.997471
0.997681
0.998025
0.998238
0.998489
0.998771
0.998974
0.999211
0.999364
0.999529
0.999631
0.999746
0.999829
0.999911
0.999964
0.99999
1
0.999996
0.999983
0.999955
0.999919
0.999879
0.99983
0.999753
0.999725
0.999676
0.99961
0.999564
0.999529
0.999487
0.999455
0.999413
0.999342
0.999352
0.999376
0.999262
0.999254
0.999262
0.999195
0.999354
0.999202
0.999137
0.999377
0.999212
0.999312
0.999185
0.999217
0.999342
0.999223
0.999424
0.99933
0.999238
0.999418
0.99952
0.999365
0.999382
0.999442
0.999579
0.999329
0.999386
0.99966
0.999409
0.999403
0.999638
0.999624
0.99959
0.999826
0.999441
0.999403
0.999912
0.999311
0.999627
0.999647
0.999696
0.999805
0.999268
0.999905
0.999921
0.999405
0.999646
0.99967
0.999683
0.999893
0.999513
0.999389
0.999914
0.99988
0.999491
0.999477
0.999846
0.999974
0.999718
0.999653
0.999669
0.999949
0.999698
0.999922
0.999928
0.999688
0.999822
0.999974
0.999924
0.999976
0.999995
0.999595
0.999383
0.999783
0.9997
0.999952
0.999412
0.999965
0.999942
0.999175
0.999424
0.99981
0.999547
0.999241
0.999391
0.999322
0.99947
0.999295
0.999167
0.999568
0.998855
0.999534
0.999258
0.998893
0.999292
0.999334
0.998821
0.999203
0.999466
0.998869
0.999053
0.999538
0.998988
0.999056
0.999453
0.999471
0.999499
0.999178
0.999069
0.999693
0.999357
0.999311
0.999626
0.999711
0.999382
0.999512
0.999456
0.999718
0.999369
0.9992
0.999187
0.999978
0.999577
0.999806
0.999743
0.999509
0.999325
0.99987
0.999955
0.99922
0.99946
0.999654
0.999227
0.99954
0.999554
0.999005
0.999813
0.99992
0.99988
0.999637
0.999769
0.999933
0.999424
0.999303
0.999341
0.999491
0.999035
0.999458
0.998949
0.999021
0.998939
0.999011
0.998883
0.998746
0.99891
0.998838
0.998683
0.998647
0.998695
0.9986
0.998494
0.998775
0.998716
0.998468
0.998481
0.998853
0.998941
0.998351
0.99847
0.998841
0.998822
0.998754
0.998402
0.998875
0.998984
0.998683
0.998403
0.998942
0.999111
0.999155
0.999152
0.99888
0.99933
0.999064
0.999468
0.999893
0.99989
0.998962
0.998765
0.999877
0.999937
0.99945
0.999309
0.999746
0.999494
0.999271
0.999421
0.999414
0.999226
0.999241
0.999241
0.999389
0.999302
0.999336
0.999478
0.99954
0.999595
0.999666
0.999698
0.999746
0.999832
0.999903
0.999955
0.999991
0.999999
0.999977
0.999923
0.999822
0.999695
0.999483
0.999205
0.998968
0.998503
0.997936
0.997407
0.997066
0.996176
0.995247
0.994689
0.993601
0.992436
0.991627
0.990468
0.988949
0.987949
0.986885
0.985347
0.983842
0.982781
0.981325
0.979731
0.978494
0.977426
0.976311
0.974759
0.97321
0.972142
0.97116
0.970059
0.969133
0.968134
0.967327
0.966625
0.966005
0.96529
0.964828
0.964608
0.964171
0.964683
0.9651
0.965244
0.966518
0.967999
0.969592
0.971373
0.971624
0.972313
0.97425
0.975851
0.976689
0.977091
0.978455
0.98167
0.984311
0.994582
0.987789
0.990786
0.990745
0.991613
0.994942
0.993181
0.985058
0.997063
0.995626
0.989751
0.985305
0.980332
0.97658
0.972868
0.969686
0.966568
0.963321
0.96107
0.958282
0.955518
0.952056
0.950832
0.951632
0.95219
0.951541
0.950623
0.950818
0.951798
0.952547
0.953398
0.95539
0.956679
0.958449
0.961605
0.963774
0.967399
0.97118
0.975697
0.983452
0.984432
0.986221
0.990937
0.994078
0.997385
0.999691
0.997531
0.995643
0.995157
0.994494
0.994235
0.994328
0.994489
0.995238
0.995916
0.996511
0.997164
0.997784
0.998396
0.99882
0.999163
0.999422
0.999629
0.999816
0.999943
0.999994
0.999998
0.999976
0.999912
0.999829
0.999674
0.999584
0.999455
0.999322
0.999204
0.999124
0.999011
0.998834
0.998708
0.998698
0.99865
0.9985
0.998409
0.998514
0.998426
0.998132
0.998161
0.998428
0.998441
0.998187
0.998114
0.998256
0.998252
0.998516
0.998542
0.998301
0.998554
0.99879
0.998662
0.998766
0.998901
0.999137
0.99926
0.999061
0.999018
0.999357
0.999625
0.999404
0.999222
0.999427
0.999366
0.999215
0.99965
0.999956
0.999926
0.999826
0.999497
0.998998
0.999238
0.999878
0.999917
0.998685
0.999169
0.999731
0.999895
0.999978
0.998364
0.998759
0.997619
0.999734
0.998317
0.9996
0.999013
0.998571
0.998659
0.999316
0.998905
0.999694
0.998925
0.998693
0.998429
0.99942
0.998803
0.999184
0.998481
0.998967
0.99788
0.998535
0.999254
0.99713
0.997632
0.998091
0.998573
0.99788
0.998108
0.997934
0.997811
0.99787
0.998018
0.998073
0.99811
0.998539
0.99894
0.998348
0.998049
0.998448
0.998637
0.99863
0.999311
0.999863
0.997984
0.997772
0.999898
0.998879
0.999252
0.998058
0.999508
0.9996
0.999622
0.999432
0.999876
0.999658
0.999964
0.999923
0.999113
0.999208
0.998425
0.99976
0.999654
0.999696
0.998885
0.999957
0.998965
0.999773
0.999885
0.999214
0.998919
0.996925
0.999903
0.999622
0.999416
0.998103
0.996799
0.995081
0.992166
0.998188
0.997351
0.992655
0.994539
0.999757
0.994735
0.998283
0.996101
0.998302
0.993535
0.992763
0.994944
0.999705
0.999314
0.994711
0.996539
0.987953
0.996626
0.979983
0.998142
0.990989
0.989516
0.999689
0.992953
0.994968
0.993592
0.999526
0.996395
0.994942
0.991918
0.999302
0.992865
0.976382
0.982835
0.991325
0.996801
0.985217
0.986836
0.994922
0.993547
0.986184
0.994161
0.986079
0.990468
0.997751
0.986647
0.983281
0.988852
0.990944
0.992466
0.996029
0.990663
0.995202
0.992848
0.990055
0.992449
0.993112
0.987024
0.999807
0.99025
0.991861
0.993368
0.978033
0.982662
0.996614
0.965139
0.980143
0.984587
0.95798
0.971349
0.994858
0.9828
0.994289
0.995333
0.988529
0.985015
0.984214
0.986497
0.99291
0.987829
0.993458
0.99271
0.999718
0.999966
0.998297
0.990916
0.995397
0.999286
0.995435
0.996448
0.995564
0.990632
0.993426
0.990687
0.996129
0.99955
0.988683
0.986214
0.985263
0.985538
0.991728
0.990291
0.992155
0.9971
0.998082
0.996369
0.997459
0.996903
0.997539
0.994181
0.998111
0.992466
0.990477
0.99472
0.985188
0.994325
0.999754
0.988757
0.984625
0.977754
0.991306
0.990665
0.987464
0.988146
0.986805
0.987849
0.988288
0.990194
0.993339
0.992519
0.995378
0.993858
0.995078
0.996727
0.998623
0.997904
0.998235
0.998972
0.999438
0.999508
0.999874
0.999763
0.999871
0.999955
0.999979
0.99998
0.999993
0.999994
0.999999
0.999998
0.999998
1
0.999998
1
1
0.999996
0.999996
0.999938
0.999996
0.99998
0.999879
0.999996
0.999544
0.999501
0.999761
0.999782
0.999135
0.999525
0.997882
0.998909
0.999653
0.999224
0.997903
0.999804
0.999927
0.999711
0.9972
0.999344
0.997903
0.999754
0.998673
0.999921
0.999681
0.999639
0.999847
1
0.999874
0.999384
0.998414
0.996343
0.995175
0.989571
0.989528
0.988941
0.993573
0.996844
0.999924
0.995489
0.994998
0.99332
0.995755
0.995573
0.994587
0.997264
0.998088
0.997311
0.998144
0.997678
0.996843
0.998836
0.996253
0.995706
0.989551
0.98633
0.982563
0.979167
0.975193
0.967674
0.978748
0.964129
0.979565
0.993001
0.97621
0.956985
0.999976
0.976444
0.977216
0.97906
0.982082
0.988567
0.995824
0.991724
0.991511
0.999532
0.991367
0.998805
0.988325
0.997178
0.981858
0.993111
0.994223
0.991938
0.982232
0.996607
0.992658
0.986615
0.994016
0.995891
0.987518
0.991233
0.990102
0.999206
0.989158
0.987878
0.984483
0.998643
0.999522
0.994393
0.993152
0.996739
0.996455
0.993182
0.995066
0.993205
0.991153
0.992593
0.994807
0.989556
0.978986
0.982688
0.998384
0.995085
0.977213
0.992858
0.98374
0.999138
0.983315
0.992566
0.995897
0.992793
0.978103
0.997928
0.999422
0.999701
0.995428
0.991684
0.998229
0.995158
0.998225
0.998001
0.991385
0.99198
0.982649
0.994446
0.981456
0.999034
0.997564
0.990003
0.995524
0.981657
0.997486
0.999809
0.999594
0.990802
0.994928
0.99055
0.992204
0.989435
0.99839
0.988449
0.99229
0.999043
0.981101
0.990013
0.989427
0.987946
0.994465
0.996495
0.992646
0.989287
0.994597
0.994583
0.992684
0.994109
0.99685
0.999149
0.988022
0.986555
0.979462
0.981638
0.986973
0.990368
0.996698
0.999659
0.98782
0.99784
0.993416
0.995356
0.995783
0.997136
0.997408
0.996877
0.998709
0.991229
0.989696
0.988719
0.993178
0.991972
0.990467
0.983616
0.981702
0.984163
0.976059
0.969327
0.973201
0.97369
0.983112
0.986294
0.978275
0.983353
0.975399
0.976704
0.987251
0.984626
0.984654
0.989635
0.991406
0.987159
0.978055
0.985187
0.988728
0.996086
0.992018
0.988542
0.997467
0.998869
0.99834
0.995696
0.995388
0.992409
0.998691
0.998951
0.996733
0.99603
0.998261
0.999698
0.993913
0.997208
0.996058
0.996648
0.99676
0.995842
0.997015
0.998407
0.995204
0.995747
0.997621
0.999176
0.999158
0.997275
0.999845
0.999757
0.995872
0.998247
0.996074
0.996519
0.999363
0.999191
0.997357
0.998471
0.999971
0.998947
0.999926
0.997396
0.998557
0.996898
0.996714
0.994567
0.996318
0.998614
0.996488
0.998737
0.999573
0.999946
0.987433
0.997949
0.998911
0.997299
0.993541
0.994505
0.996435
0.993303
0.994552
0.989004
0.993412
0.980731
0.990025
0.983164
0.992361
0.994818
0.992578
0.989465
0.991119
0.989035
0.991987
0.995321
0.99265
0.993452
0.999751
0.996964
0.999074
0.997578
0.999639
0.998634
0.99999
0.999561
0.999884
0.999881
0.999981
0.999992
1
0.999994
0.999928
0.999981
0.999825
0.999971
0.999998
0.999889
0.999953
0.999943
0.999889
0.999994
0.999946
0.999879
0.999942
0.99977
0.999971
0.999988
0.999978
0.999968
0.999946
0.999969
0.999972
0.999948
0.999988
1
0.999957
0.999955
0.999592
0.999197
0.999233
0.99981
0.999032
0.999994
0.99933
0.999577
0.999643
0.999073
0.998427
0.999187
0.997468
0.999254
0.999092
0.99972
0.998528
0.997723
0.992898
0.998708
0.996165
0.994741
0.997979
0.983455
0.991619
0.980242
0.981689
0.98631
0.990474
0.985031
0.978514
0.983758
0.995504
0.994835
0.989534
0.991164
0.990881
0.996964
0.994092
0.998209
0.994399
0.99675
0.994374
0.994135
0.998936
0.997841
0.996203
0.991358
0.989399
0.990779
0.997869
0.999892
0.998732
0.999621
0.998128
0.997622
0.996479
0.998394
0.997394
0.997809
0.993134
0.994847
0.996417
0.998898
0.996955
0.992687
0.988826
0.997784
0.992027
0.993517
0.999055
0.992268
0.998765
0.997275
0.999844
0.994555
0.995054
0.997902
0.999521
0.998794
0.990213
0.994589
0.996702
0.99757
0.991851
0.992972
0.997908
0.99803
0.999947
0.998737
0.999312
0.999363
0.994451
0.999608
0.991159
0.998636
0.996849
0.996106
0.995688
0.999423
0.997692
0.99893
0.990011
0.994764
0.986286
0.996054
0.996774
0.981373
0.986832
0.984082
0.991792
0.996279
0.997166
0.993742
0.993487
0.993437
0.997161
0.995729
0.998086
0.994108
0.997159
0.990124
0.999076
0.994019
0.997731
0.999623
0.99917
0.99376
0.998451
0.987929
0.992171
0.99171
0.988132
0.978347
0.98421
0.995422
0.997439
0.989216
0.984134
0.984993
0.994885
0.979646
0.988788
0.992491
0.992343
0.98982
0.996485
0.998627
0.995057
0.992952
0.999377
0.996776
0.989897
0.999633
0.994848
0.990466
0.99323
0.990969
0.995738
0.998495
0.999904
0.995039
0.992425
0.992036
0.9991
0.999179
0.997412
0.994483
0.997931
0.996394
0.999008
0.995234
0.99872
0.99734
0.990303
0.991964
0.991193
0.995897
0.982694
0.98468
0.981413
0.982802
0.992266
0.996675
0.999073
0.985738
0.99123
0.999703
0.973627
0.986361
0.990915
0.980749
0.995891
0.997019
0.991363
0.970092
0.979498
0.996248
0.995379
0.992661
0.980188
0.975088
0.980462
0.994559
0.945109
0.972804
0.995975
0.979367
0.981899
0.982058
0.992855
0.981853
0.994062
0.988528
0.991039
0.996502
0.991226
0.997054
0.993166
0.997233
0.989301
0.998992
0.998871
0.996772
0.999838
0.997234
0.99996
0.999471
1
0.99929
0.999035
0.999302
0.998183
0.988126
0.99495
0.997645
0.99641
0.998962
0.999996
0.999999
0.999832
0.996243
0.980092
0.995295
0.99311
0.989758
0.997892
0.999255
0.999854
0.996386
0.961831
0.992563
0.984452
0.977157
0.976882
0.989905
0.999962
0.992664
0.968688
0.971478
0.972959
0.949429
0.942335
0.989605
0.992302
0.982536
0.971482
0.992726
0.990134
0.994925
0.978864
0.999182
0.995747
0.993596
0.99877
0.974
0.985403
0.994918
0.990055
0.982823
0.997929
0.974352
0.973912
0.985458
0.952496
0.981111
0.985745
0.991145
0.979402
0.980987
0.999981
0.961543
0.973093
0.990437
0.972657
0.954678
0.998631
0.973241
0.99249
0.973878
0.970316
0.994074
0.99493
0.986768
0.98931
0.994741
0.985123
0.987407
0.997396
0.992327
0.973963
0.989919
0.984673
0.983369
0.985948
0.992594
0.989594
0.988015
0.97852
0.991448
0.978953
0.996517
0.969441
0.970664
0.99947
0.979102
0.98042
0.993902
0.993633
0.989001
0.999461
0.997432
0.99832
0.98936
0.995447
0.984838
0.989496
0.99488
0.985096
0.97752
0.983366
0.978543
0.985072
0.99097
0.990406
0.98524
0.969179
0.996367
0.994609
0.981429
0.982257
0.972187
0.984311
0.977011
0.992126
0.995406
0.985805
0.970928
0.989736
0.960257
0.986305
0.973852
0.991918
0.976641
0.988212
0.972387
0.997705
0.99207
0.997756
0.986001
0.995067
0.99938
0.979239
0.981419
0.951616
0.994515
0.961165
0.96625
0.995575
0.943555
0.99629
0.983594
0.986278
0.954288
0.990831
0.96754
0.952949
0.998457
0.93839
0.989664
0.966774
0.939268
0.983678
0.946624
0.942916
0.988715
0.976826
0.948092
0.992292
0.9738
0.945273
0.986001
0.974613
0.95767
0.958781
0.967285
0.977545
0.967641
0.964416
0.977907
0.995717
0.966651
0.991568
0.982242
0.99829
0.972901
0.993273
0.964672
0.990553
0.989315
0.989447
0.95896
0.978878
0.970674
0.978791
0.973276
0.988121
0.988616
0.979752
0.989745
0.935449
0.891742
0.891004
0.950382
0.891356
0.950021
0.910192
0.902732
0.938032
0.946575
0.935384
0.995106
0.944858
0.943087
0.977975
0.960073
0.997912
0.927185
0.943375
0.984318
0.954776
0.972949
0.974866
0.960532
0.963331
0.984586
0.927034
0.955458
0.987656
0.979257
0.963086
0.985461
0.959688
0.964136
0.966874
0.96991
0.961356
0.995021
0.99311
0.990837
0.989639
0.961253
0.985235
0.982706
0.960003
0.983291
0.994209
0.990635
0.979031
0.973561
0.968174
0.968811
0.984275
0.952091
0.97241
0.976414
0.979947
0.959646
0.972023
0.949355
0.979235
0.976152
0.995734
0.975161
0.96978
0.997453
0.996385
0.998728
0.974365
0.989624
0.985966
0.995175
0.981471
0.990788
0.991089
0.993303
0.979346
0.986954
0.997581
0.994807
0.999431
0.998043
0.983705
0.991586
0.997527
0.999343
0.999553
0.994599
0.99815
0.998941
0.998555
0.995323
0.993959
0.987625
0.988087
0.992162
0.993317
0.999892
0.999007
0.979674
0.976285
0.97695
0.976855
0.996736
0.995289
0.981948
0.978894
0.99268
0.998343
0.997013
0.998789
0.997342
0.99584
0.999275
0.996788
0.991926
0.985424
0.990878
0.966437
0.980062
0.99724
1
0.98274
0.987466
1
1
1
1
1
1
1
1
1
1
1
1
1
1
1
1
1
1
1
1
1
1
1
1
1
1
1
1
1
1
1
1
1
1
1
1
1
1
1
1
1
1
1
1
1
1
1
1
1
1
1
1
1
1
1
1
1
1
1
1
1
1
1
1
1
1
1
1
1
1
1
1
1
1
1
1
1
1
1
1
1
1
1
1
1
1
1
1
1
1
1
1
1
1
1
1
1
1
1
1
1
1
1
1
1
1
1
1
1
1
1
1
1
1
1
1
1
1
1
1
1
1
1
1
1
1
1
1
1
1
1
1
1
1
1
1
1
1
1
1
1
1
1
1
1
1
1
1
1
1
1
1
1
1
1
1
1
1
1
1
1
1
1
1
1
1
1
1
1
1
1
1
1
1
1
1
1
1
1
1
1
1
1
1
1
1
1
1
1
1
1
1
1
1
1
1
1
1
1
1
1
1
1
1
1
1
1
1
1
1
1
1
1
1
1
0.999999
0.999999
0.999999
0.999999
0.999999
0.999999
0.999999
0.999999
0.999999
0.999999
0.999999
0.999999
0.999999
0.999999
0.999999
0.999999
0.999999
0.999999
0.999999
0.999999
0.999998
0.999998
0.999998
0.999998
0.999998
0.999998
0.999998
0.999998
0.999998
0.999998
0.999998
0.999998
0.999998
0.999999
0.999999
0.999999
0.999999
1
1
0.999999
0.999999
0.999998
0.999998
0.999997
0.999996
0.999995
0.999995
0.999994
0.999993
0.999992
0.999992
0.999991
0.99999
0.999991
0.999994
0.999985
0.999967
0.999988
0.999971
0.999969
0.99993
0.999924
0.999851
0.99979
0.999789
0.999851
0.999877
0.999877
0.999877
0.99987
0.999863
0.999856
0.999848
0.999839
0.999829
0.999819
0.999808
0.999797
0.999784
0.999771
0.999758
0.999743
0.999727
0.999711
0.999693
0.999674
0.999654
0.999634
0.999617
0.999559
0.999523
0.999101
0.993006
0.990862
0.998456
0.999455
0.999276
0.999338
0.999252
0.99922
0.999151
0.999089
0.999011
0.998923
0.998819
0.998694
0.99854
0.998346
0.998103
0.9978
0.997422
0.996957
0.996423
0.995906
0.995448
0.995084
0.994878
0.994678
0.994459
0.994176
0.993901
0.993831
0.993905
0.994134
0.994385
0.994919
0.996012
0.99775
0.999659
0.99631
0.993191
0.992303
0.994732
0.997703
0.999516
0.999528
0.99886
0.998391
0.99808
0.997952
0.998048
0.998319
0.998613
0.998809
0.998857
0.998923
0.999077
0.999273
0.999477
0.999669
0.999829
0.999942
0.999997
0.999986
0.999912
0.999776
0.999587
0.999369
0.999149
0.998947
0.998641
0.998289
0.997901
0.997539
0.997249
0.997169
0.997146
0.997169
0.9972
0.997276
0.997754
0.997997
0.998338
0.998753
0.999402
0.999685
0.999828
0.999256
0.9979
0.996202
0.996589
0.999974
0.997116
0.996373
0.995485
0.994435
0.996901
0.999611
0.999645
0.999188
0.998552
0.997979
0.997828
0.997729
0.997421
0.998055
0.99865
0.999381
0.999903
0.999826
0.999853
0.999949
0.999935
0.999864
0.999723
0.999791
0.999794
0.999548
0.99949
0.999561
0.999516
0.999423
0.999338
0.999353
0.999379
0.999305
0.999213
0.999168
0.999249
0.999258
0.999138
0.999274
0.999548
0.999538
0.999513
0.999737
0.999904
0.999727
0.999784
0.999548
0.999104
0.998727
0.998552
0.998483
0.998078
0.99749
0.997325
0.997362
0.996877
0.996335
0.996195
0.996155
0.995804
0.995667
0.995019
0.995803
0.992941
0.997035
0.988355
0.99593
0.972525
0.982868
0.940907
0.9314
0.920691
1
1
1
1
1
1
1
1
1
1
1
1
1
1
1
1
1
1
1
1
1
1
1
1
1
1
1
1
1
1
1
1
1
1
1
1
1
1
1
1
1
1
1
1
1
1
1
1
1
1
1
1
1
1
1
1
1
1
1
1
1
1
1
1
1
1
1
1
1
1
1
1
1
1
1
1
1
1
1
1
1
1
1
1
1
1
1
1
1
1
1
1
1
1
1
1
1
1
1
1
1
1
1
1
1
1
1
1
1
1
1
1
1
1
1
1
1
1
1
1
1
1
1
1
1
1
1
1
1
1
1
1
1
1
1
1
1
1
1
1
1
1
1
1
1
1
1
1
1
1
1
1
1
1
1
1
1
1
1
1
1
1
1
1
1
1
1
1
1
1
1
1
1
1
1
1
1
1
1
1
1
1
1
1
1
1
1
1
1
1
1
1
1
1
1
1
1
1
1
1
1
1
1
1
1
1
1
1
1
1
1
1
1
1
1
1
1
1
1
1
1
1
1
1
1
1
1
1
1
1
1
1
1
1
1
1
1
1
1
1
1
1
1
1
1
1
1
1
1
1
1
1
1
1
1
0.999999
0.999999
0.999999
0.999999
0.999999
0.999999
0.999999
0.999999
0.999999
0.999999
0.999998
0.999998
0.999998
0.999998
0.999998
0.999998
0.999996
0.999995
0.999995
0.999995
0.999994
0.999997
0.999999
0.999999
0.999996
0.999997
0.999998
0.999995
0.999993
0.999991
0.999989
0.999987
0.999985
0.999982
0.999978
0.999974
0.99997
0.999965
0.999959
0.999951
0.999943
0.999933
0.999922
0.999909
0.999894
0.999877
0.999857
0.999833
0.999803
0.999795
0.999778
0.998844
0.999677
0.99967
0.999794
0.999424
0.999461
0.99928
0.999211
0.999073
0.99895
0.998796
0.99863
0.99844
0.998227
0.997987
0.997715
0.997407
0.997059
0.99667
0.996237
0.995761
0.995266
0.994806
0.994408
0.994098
0.993992
0.994058
0.994339
0.994977
0.995703
0.996197
0.996333
0.996411
0.996829
0.997189
0.997497
0.997737
0.997945
0.998222
0.99872
0.999405
0.999873
1
0.999916
0.999723
0.999486
0.99926
0.999104
0.999063
0.999205
0.999579
0.999758
0.99943
0.999804
0.999903
0.999624
0.999415
0.999296
0.999272
0.998972
0.998353
0.996378
0.994572
0.993785
0.993524
0.993262
0.991373
0.989137
0.985599
0.984883
0.987002
0.990843
0.996862
0.997773
0.990724
0.98748
0.98501
0.983405
0.980777
0.978455
0.977996
0.977089
0.97566
0.974432
0.973092
0.972205
0.969068
0.96076
0.957865
0.961753
0.967496
0.970434
0.969769
0.968714
0.96679
0.96394
0.961026
0.959196
0.95791
0.95714
0.956321
0.95526
0.95451
0.95396
0.954407
0.955268
0.956114
0.956859
0.957069
0.956845
0.956845
0.95688
0.956871
0.956944
0.957165
0.957281
0.957276
0.95753
0.957816
0.95801
0.958224
0.958502
0.958903
0.959319
0.95969
0.960143
0.960664
0.961273
0.961717
0.961993
0.962477
0.963073
0.963356
0.963596
0.964034
0.964508
0.964885
0.964962
0.965233
0.965675
0.965892
0.965821
0.965806
0.966248
0.96661
0.966319
0.966071
0.966706
0.967078
0.966874
0.966925
0.967597
0.967948
0.968863
0.968159
0.972227
0.966488
0.981126
0.957829
0.983466
0.935023
0.938567
0.8954
0.927929
1
1
1
1
1
1
1
1
1
1
1
1
1
1
1
1
1
1
1
1
1
1
1
1
1
1
1
1
1
1
1
1
1
1
1
1
1
1
1
1
1
1
1
1
1
1
1
1
1
1
1
1
1
1
1
1
1
1
1
1
1
1
1
1
1
1
1
1
1
1
1
1
1
1
1
1
1
1
1
1
1
1
1
1
1
1
1
1
1
1
1
1
1
1
1
1
1
1
1
1
1
1
1
1
1
1
1
1
1
1
1
1
1
1
1
1
1
1
1
1
1
1
1
1
1
1
1
1
1
1
1
1
1
1
1
1
1
1
1
1
1
1
1
1
1
1
1
1
1
1
1
1
1
1
1
1
1
1
1
1
1
1
1
1
1
1
1
1
1
1
1
1
1
1
1
1
1
1
1
1
1
1
1
1
1
1
1
1
1
1
1
1
1
1
1
1
1
1
1
1
1
1
1
1
1
1
1
1
1
1
1
1
1
1
1
1
1
1
1
1
1
1
1
1
1
1
1
1
1
1
1
1
1
1
1
1
1
1
1
1
1
1
1
1
1
1
1
1
1
1
1
1
1
1
1
1
1
1
1
1
1
1
1
1
1
1
1
1
1
1
1
1
1
1
1
1
1
1
1
1
1
1
1
1
1
1
1
1
1
1
1
1
1
1
1
1
1
1
1
1
1
1
1
1
0.999998
0.999998
0.999944
0.99995
0.999977
0.99995
0.999996
0.999994
0.999999
0.999998
1
0.999999
1
1
1
0.999999
0.999999
0.999998
0.999997
0.999995
0.999993
0.999988
0.999982
0.999973
0.999964
0.999958
0.999952
0.999951
0.999958
0.999971
0.999987
0.999999
0.999996
0.999998
1
0.999993
0.999974
0.999935
0.999868
0.999766
0.999651
0.999508
0.999224
0.998924
0.998591
0.99811
0.997691
0.997176
0.996691
0.996328
0.996213
0.996203
0.99638
0.995943
0.995531
0.994209
0.99068
0.983721
0.978288
0.974484
0.972141
0.970828
0.970729
0.97566
0.980917
0.991177
0.990424
0.975397
0.966159
0.957187
0.949646
0.944031
0.945669
0.946891
0.950434
0.956104
0.962164
0.967099
0.969702
0.97441
0.979699
0.985004
0.995502
0.999568
0.998504
0.996873
0.998982
0.995748
0.985116
0.97665
0.978937
0.986943
0.994882
0.99976
0.998693
0.998281
0.999848
0.998366
0.998088
0.998264
0.997432
0.995181
0.993019
0.991849
0.989742
0.987097
0.985653
0.98585
0.982527
0.978461
0.975236
0.97377
0.973065
0.972705
0.972631
0.972337
0.971656
0.971345
0.971618
0.971139
0.970671
0.970415
0.970245
0.969984
0.96947
0.969071
0.969005
0.968871
0.968743
0.968398
0.968348
0.968623
0.968419
0.968308
0.968951
0.969391
0.969402
0.969669
0.970603
0.97189
0.972313
0.972562
0.973637
0.975322
0.976686
0.977305
0.978358
0.980499
0.982417
0.98344
0.984909
0.987097
0.989174
0.990786
0.992542
0.994046
0.995986
0.996683
0.99867
0.998408
0.999973
0.999586
0.999988
0.999454
0.999169
0.99861
1
1
1
1
1
1
1
1
1
1
1
1
1
1
1
1
1
1
1
1
1
1
1
1
1
1
1
1
1
1
1
1
1
1
1
1
1
1
1
1
1
1
1
1
1
1
1
1
1
1
1
1
1
1
1
1
1
1
1
1
1
1
1
1
1
1
1
1
1
1
1