/*--------------------------------*- C++ -*----------------------------------*\
| =========                 |                                                 |
| \\      /  F ield         | OpenFOAM: The Open Source CFD Toolbox           |
|  \\    /   O peration     | Version:  v1812                                 |
|   \\  /    A nd           | Web:      www.OpenFOAM.com                      |
|    \\/     M anipulation  |                                                 |
\*---------------------------------------------------------------------------*/
FoamFile
{
    version     2.0;
    format      ascii;
    class       volScalarField;
    location    "120";
    object      k;
}
// * * * * * * * * * * * * * * * * * * * * * * * * * * * * * * * * * * * * * //

dimensions      [0 2 -2 0 0 0 0];


internalField   nonuniform List<scalar> 
212248
(
3.56233e-05
3.22393e-05
2.82455e-05
2.47145e-05
2.17668e-05
1.94377e-05
1.77411e-05
1.66999e-05
1.63612e-05
1.68321e-05
1.82954e-05
2.1059e-05
2.56141e-05
3.26452e-05
4.15688e-05
5.14858e-05
6.24061e-05
7.43132e-05
8.71865e-05
0.000100999
0.000115722
0.000131324
0.000147774
0.000165037
0.00018308
0.000201867
0.000221361
0.000241526
0.000262325
0.00028372
0.000305673
0.000328146
0.000351101
0.000374499
0.000398304
0.000422476
0.000446977
0.000471771
0.000496818
0.000522083
0.000547528
0.000573117
0.000598812
0.000624579
0.000650381
0.000676182
0.000701947
0.000727642
0.000753233
0.000778687
0.000803969
0.000829048
0.00085389
0.000878464
0.000902738
0.000926681
0.000950264
0.000973456
0.000996228
0.00101855
0.0010404
0.00106174
0.00108255
0.00110281
0.00112248
0.00114154
0.00115998
0.00117776
0.00119486
0.00121126
0.00122694
0.00124187
0.00125605
0.00126944
0.00128202
0.00129379
0.00130473
0.00131481
0.00132403
0.00133236
0.00133981
0.00134634
0.00135195
0.00135663
0.00136037
0.00136314
0.00136495
0.00136578
0.00136567
0.00136455
0.0013624
0.00135924
0.00135508
0.00134997
0.00134389
0.00133684
0.00132884
0.00131988
0.00130998
0.00129914
0.00128737
0.00127468
0.00126108
0.00124658
0.00123119
0.00121494
0.00119782
0.00117987
0.00116109
0.00114151
0.00112115
0.00110002
0.00107814
0.00105555
0.00103227
0.00100831
0.000983717
0.000958511
0.000932725
0.000906391
0.000879545
0.000852223
0.000824464
0.00079631
0.000767804
0.000738993
0.000709926
0.000680656
0.000651238
0.00062173
0.000592194
0.000562698
0.000533306
0.00050409
0.000475123
0.00044648
0.000418238
0.000390478
0.000363278
0.000336719
0.00031088
0.000285839
0.000261671
0.000238446
0.000216233
0.000195092
0.000175077
0.000156237
0.000138609
0.000122225
0.000107102
9.32509e-05
8.06685e-05
6.93415e-05
5.92463e-05
5.03483e-05
4.26028e-05
3.59557e-05
3.03455e-05
2.57063e-05
2.19708e-05
1.90763e-05
1.69719e-05
1.56285e-05
1.5053e-05
1.53056e-05
1.65376e-05
1.90161e-05
2.3178e-05
2.96478e-05
3.76166e-05
4.63693e-05
5.5868e-05
6.60633e-05
7.69073e-05
8.83529e-05
0.000100354
0.000112865
0.000125844
0.000139248
0.000153036
0.000167171
0.000181614
0.000196331
0.000211287
0.00022645
0.000241789
0.000257276
0.000272883
0.000288583
0.000304353
0.000320168
0.000336006
0.000351848
0.000367673
0.000383464
0.000399203
0.000414874
0.000430463
0.000445955
0.000461338
0.000476599
0.000491727
0.00050671
0.000521541
0.000536209
0.000550706
0.000565025
0.000579157
0.000593097
0.000606839
0.000620378
0.000633707
0.000646823
0.000659721
0.000672398
0.00068485
0.000697075
0.00070907
0.000720832
0.000732359
0.00074365
0.000754703
0.000765517
0.00077609
0.000786422
0.000796511
0.000806359
0.000815963
0.000825324
0.000834442
0.000843316
0.000851947
0.000860335
0.00086848
0.000876383
0.000884043
0.000891462
0.00089864
0.000905577
0.000912274
0.000918732
0.000924951
0.000930931
0.000936674
0.00094218
0.00094745
0.000952484
0.000957282
0.000961846
0.000966175
0.00097027
0.000974132
0.000977761
0.000981156
0.000984319
0.000987249
0.000989947
0.000992412
0.000994645
0.000996645
0.000998412
0.000999945
0.00100124
0.00100231
0.00100314
0.00100373
0.00100409
0.00100422
0.0010041
0.00100374
0.00100314
0.0010023
0.00100123
0.000999907
0.000998348
0.000996555
0.000994532
0.000992276
0.000989773
0.000987008
0.000983982
0.000980703
0.000977174
0.000973391
0.000969355
0.000965063
0.000960514
0.000955707
0.000950639
0.00094531
0.000939717
0.00093386
0.000927736
0.000921345
0.000914685
0.000907755
0.000900554
0.000893081
0.000885336
0.000877316
0.000869023
0.000860456
0.000851614
0.000842505
0.000833148
0.00082344
0.000813417
0.000802132
0.000793304
0.000782102
0.000771207
0.000759927
0.000748459
0.000736728
0.000724775
0.000712595
0.000700203
0.00068761
0.000674829
0.000661875
0.000648765
0.000635517
0.000622152
0.000608693
0.000595164
0.000581591
0.000568005
0.000554436
0.000540916
0.000527479
0.000514161
0.000501001
0.000488036
0.000475307
0.000462854
0.000450716
0.000438933
0.000427541
0.000416577
0.000406074
0.000396063
0.000386572
0.000377622
0.00036923
0.000361411
0.000354173
0.00034752
0.000341441
0.000335916
0.00033092
0.000326418
0.00032237
0.000318724
0.000315422
0.000312399
0.000309585
0.000306908
0.000304306
0.000301724
0.000299089
0.000296322
0.00029336
0.000290139
0.000286614
0.000282747
0.000278505
0.00027387
0.00026882
0.00026334
0.000257427
0.000251071
0.000244279
0.000237078
0.000229496
0.000221572
0.00021336
0.000204892
0.000196196
0.00018731
0.000178296
0.000169224
0.000160146
0.000151113
0.000142191
0.000133434
0.000124872
0.00011654
0.000108505
0.000100817
9.3485e-05
8.65204e-05
7.99517e-05
7.38076e-05
6.80991e-05
6.28276e-05
5.79861e-05
5.35721e-05
4.96015e-05
4.60787e-05
4.29976e-05
4.03518e-05
3.81613e-05
3.6475e-05
3.53567e-05
3.48839e-05
3.51896e-05
3.64876e-05
3.91209e-05
4.35964e-05
5.05531e-05
5.87948e-05
6.772e-05
7.73269e-05
8.75878e-05
9.85008e-05
0.000110049
0.000122207
0.000134953
0.000148266
0.000162128
0.000176506
0.000191371
0.000206709
0.000222481
0.000238656
0.000255203
0.00027209
0.000289288
0.000306762
0.00032448
0.000342408
0.000360509
0.000378749
0.000397095
0.000415509
0.00043395
0.000452387
0.000470809
0.000489171
0.000507429
0.000525566
0.00054358
0.000561439
0.000579089
0.000596518
0.000613742
0.000630739
0.00064746
0.000663889
0.000680043
0.000695897
0.000711391
0.000726498
0.000741222
0.000755541
0.000769403
0.000782758
0.000795582
0.000807894
0.000819651
0.000830896
0.000841347
0.00085124
0.000859401
0.000867497
0.000872513
0.000875189
0.000871133
0.000852301
0.00086534
0.000897258
0.00092433
0.000933427
0.000938747
0.000944662
0.000952388
0.000961743
0.000969643
0.000974833
0.000977868
0.000979347
0.000979849
0.000979831
0.000979571
0.000979083
0.000978165
0.000976626
0.000974392
0.000971466
0.000967864
0.000963591
0.000958653
0.000953071
0.000946861
0.000940025
0.000932569
0.000924506
0.00091585
0.000906612
0.000896805
0.000886442
0.000875544
0.000864127
0.000852209
0.00083981
0.000826954
0.00081366
0.000799945
0.00078583
0.000771339
0.000756485
0.000741288
0.00072577
0.000709953
0.000693855
0.000677498
0.00066091
0.000644117
0.000627133
0.000609979
0.000592684
0.000575273
0.000557756
0.000540155
0.000522509
0.000504837
0.000487146
0.000469463
0.000451829
0.000434271
0.000416787
0.000399406
0.000382167
0.000365098
0.000348206
0.000331501
0.000315028
0.000298822
0.000282908
0.000267292
0.000251998
0.000237072
0.000222547
0.000208433
0.000194735
0.000181485
0.000168721
0.000156462
0.000144713
0.000133492
0.000122809
0.000112688
0.000103141
9.41641e-05
8.57567e-05
7.79193e-05
7.06574e-05
6.39613e-05
5.78113e-05
5.21876e-05
4.70757e-05
4.24634e-05
3.8323e-05
3.46252e-05
3.13411e-05
2.84555e-05
2.59453e-05
2.3781e-05
2.19475e-05
2.04353e-05
1.92375e-05
1.83538e-05
1.78004e-05
1.7604e-05
1.78114e-05
1.8501e-05
1.97836e-05
2.18236e-05
2.4852e-05
2.87105e-05
3.28319e-05
3.71896e-05
4.17682e-05
4.65566e-05
5.15418e-05
5.67013e-05
6.20148e-05
6.74789e-05
7.30879e-05
7.88135e-05
8.46304e-05
9.05346e-05
9.65308e-05
0.000102603
0.000108723
0.000114878
0.000121068
0.000127286
0.000133517
0.00013975
0.00014598
0.000152197
0.000158389
0.000164546
0.000170667
0.000176745
0.000182767
0.000188723
0.000194614
0.000200436
0.000206184
0.000211852
0.000217433
0.000222929
0.000228348
0.000233679
0.000238912
0.000244031
0.000249059
0.000253999
0.000258826
0.000263527
0.000268108
0.000272595
0.00027697
0.000281221
0.000285345
0.000289354
0.000293265
0.000297062
0.000300742
0.000304312
0.000307772
0.000311122
0.000314374
0.000317523
0.000320568
0.000323514
0.000326374
0.000329157
0.000331857
0.00033448
0.000337034
0.000339526
0.000341954
0.000344321
0.000346631
0.000348896
0.000351119
0.000353306
0.000355453
0.000357561
0.000359637
0.000361686
0.000363712
0.000365716
0.000367696
0.00036965
0.000371586
0.000373519
0.000375443
0.000377342
0.000379221
0.0003811
0.00038301
0.000384923
0.000386802
0.000388665
0.000390545
0.000392485
0.000394427
0.000396345
0.000398259
0.000400205
0.000402214
0.000404217
0.000406209
0.000408207
0.000410253
0.000412348
0.000414425
0.000416495
0.000418588
0.000420744
0.000422892
0.00042502
0.00042715
0.000429322
0.000431502
0.000433653
0.000435786
0.000437925
0.000440062
0.00044216
0.000444211
0.000446235
0.00044824
0.000450198
0.000452078
0.000453881
0.000455624
0.000457301
0.000458876
0.00046033
0.000461668
0.000462901
0.000464009
0.000464966
0.000465754
0.000466378
0.000466835
0.00046711
0.000467188
0.000467036
0.000466666
0.000466079
0.000465251
0.000464175
0.000462833
0.000461238
0.000459396
0.000457287
0.000454886
0.000452204
0.00044924
0.000445993
0.000442469
0.000438632
0.000434479
0.000430049
0.000425321
0.000420287
0.000414959
0.000409335
0.000403416
0.000397203
0.0003907
0.000383907
0.000376822
0.000369451
0.000361798
0.000353883
0.000345697
0.000337246
0.000328557
0.000319638
0.000310483
0.00030112
0.00029157
0.000281856
0.000271973
0.00026196
0.000251833
0.000241625
0.000231357
0.000221063
0.000210768
0.000200501
0.000190292
0.000180179
0.000170193
0.000160377
0.000150769
0.000141405
0.000132318
0.000123544
0.00011511
0.000107039
9.93584e-05
9.20896e-05
8.52525e-05
7.88705e-05
7.29591e-05
6.75281e-05
6.25927e-05
5.81751e-05
5.42912e-05
5.09896e-05
4.83123e-05
4.63601e-05
4.52562e-05
4.52247e-05
4.66081e-05
4.99216e-05
5.59856e-05
6.57624e-05
7.73084e-05
8.99973e-05
0.000103822
0.000118782
0.000134873
0.000152071
0.000170353
0.000189699
0.000210082
0.000231477
0.000253842
0.000277121
0.000301287
0.000326319
0.000352146
0.000378725
0.000406034
0.000434017
0.000462619
0.00049179
0.000521522
0.000551752
0.000582384
0.000613425
0.000644835
0.000676516
0.000708428
0.000740538
0.000772792
0.000805111
0.000837464
0.000869804
0.000902061
0.000934207
0.000966188
0.000997933
0.00102938
0.00106051
0.00109126
0.00112155
0.00115133
0.00118059
0.00120927
0.00123725
0.00126449
0.00129097
0.00131665
0.00134143
0.00136527
0.00138817
0.00141008
0.00143093
0.00145067
0.00146931
0.00148682
0.00150316
0.00151828
0.00153216
0.00154477
0.00155607
0.00156604
0.00157468
0.00158198
0.00158797
0.00159265
0.001596
0.00159801
0.00159869
0.00159813
0.00159619
0.0015929
0.00158835
0.0015826
0.00157567
0.00156756
0.00155825
0.00154775
0.00153613
0.00152347
0.0015098
0.00149507
0.00147921
0.0014622
0.0014441
0.001425
0.00140495
0.00138393
0.00136192
0.00133894
0.00131505
0.00129029
0.00126467
0.00123815
0.00121074
0.0011825
0.00115351
0.0011238
0.00109338
0.00106227
0.0010305
0.000998131
0.000965224
0.000931837
0.000898036
0.000863854
0.000829349
0.000794581
0.000759621
0.000724551
0.000689394
0.000654272
0.000619278
0.000584527
0.00055021
0.000516347
0.000483055
0.000450475
0.0004187
0.00038784
0.000358005
0.000329307
0.000301835
0.000275656
0.000250858
0.000227495
0.000205558
0.000185089
0.000166098
0.00014857
0.000132477
0.000117818
0.000104555
9.26057e-05
8.18899e-05
7.23611e-05
6.39561e-05
5.65821e-05
5.01561e-05
4.46115e-05
3.98822e-05
3.59023e-05
3.2616e-05
2.99782e-05
2.79636e-05
2.65728e-05
2.58253e-05
2.57672e-05
2.64865e-05
2.81441e-05
3.09886e-05
3.53286e-05
4.03593e-05
4.55694e-05
5.09388e-05
5.64056e-05
6.19128e-05
6.74176e-05
7.28957e-05
7.83631e-05
8.37948e-05
8.91255e-05
9.43585e-05
9.94938e-05
0.000104548
0.000109501
0.000114275
0.000118861
0.000123346
0.000127724
0.000132026
0.000136255
0.0001403
0.000144166
0.000147849
0.00015137
0.000154749
0.000157978
0.000161129
0.000164177
0.000167065
0.000169807
0.000172415
0.000174911
0.000177283
0.000179533
0.000181643
0.000183639
0.000185541
0.000187351
0.000189031
0.000190591
0.00019202
0.000193338
0.000194569
0.000195703
0.000196742
0.000197702
0.000198619
0.000199486
0.000200273
0.00020101
0.000201723
0.000202401
0.000203038
0.000203657
0.000204297
0.000204941
0.000205583
0.000206218
0.000206872
0.000207597
0.000208401
0.000209231
0.000210109
0.000211102
0.000212192
0.000213321
0.000214472
0.000215706
0.000217095
0.000218607
0.000220189
0.000221819
0.000223542
0.000225434
0.000227433
0.000229502
0.000231698
0.00023396
0.00023631
0.000238758
0.000241369
0.000244194
0.000247125
0.000250099
0.000253167
0.000256371
0.000259674
0.000263073
0.000266459
0.000269878
0.000273538
0.000277346
0.000281105
0.000284843
0.000288663
0.00029259
0.000296551
0.000300523
0.000304489
0.000308528
0.000312541
0.000316607
0.00032066
0.000324718
0.000328785
0.000332805
0.000336794
0.00034078
0.000344715
0.000348587
0.000352421
0.00035622
0.000359989
0.000363748
0.000367436
0.000370987
0.000374389
0.000377671
0.000380866
0.000383996
0.000387073
0.000390115
0.000393107
0.000396023
0.00039886
0.000401631
0.000404343
0.000407002
0.000409599
0.000412119
0.000414545
0.000416884
0.000419136
0.000421276
0.000423293
0.000425178
0.000426934
0.000428592
0.000430153
0.000431583
0.000432882
0.000434058
0.000435089
0.000435975
0.000436668
0.000437113
0.000437344
0.000437392
0.000437277
0.000436989
0.000436517
0.000435831
0.000434957
0.00043375
0.000432331
0.000430729
0.000428877
0.000426817
0.000424591
0.000422139
0.000419457
0.0004166
0.000413521
0.000410204
0.000406698
0.000402976
0.00039901
0.000394808
0.000390406
0.000385811
0.000381037
0.000376138
0.000371116
0.000365941
0.000360618
0.000355217
0.000349736
0.000344064
0.00033822
0.000332331
0.000326385
0.000320306
0.000314055
0.000307727
0.000301324
0.000294767
0.000288063
0.000281323
0.000274539
0.000267688
0.000260725
0.00025363
0.000246482
0.000239312
0.000232137
0.000224919
0.000217581
0.000210192
0.000202846
0.000195411
0.000187889
0.000180497
0.000173242
0.000166069
0.000158952
0.000151921
0.000144999
0.000138207
0.000131606
0.000125263
0.000119215
0.000113477
0.000108016
0.000102855
9.80668e-05
9.37123e-05
8.98519e-05
8.65764e-05
8.38536e-05
8.17369e-05
8.03893e-05
7.99918e-05
8.06739e-05
8.27114e-05
8.6539e-05
9.27349e-05
0.000102167
0.000116032
0.00013497
0.000156068
0.000178988
0.00020393
0.00023084
0.000259585
0.000290098
0.000322504
0.000356698
0.000392565
0.000430167
0.000469475
0.000510434
0.000553029
0.000597167
0.000642703
0.00068956
0.000737709
0.000787071
0.000837526
0.000888998
0.000941379
0.000994505
0.00104826
0.00110255
0.00115729
0.00121244
0.00126785
0.00132338
0.00137889
0.00143425
0.00148942
0.0015443
0.00159882
0.00165281
0.00170617
0.00175877
0.00181042
0.00186096
0.00191022
0.00195821
0.00200512
0.00205121
0.00209691
0.00214294
0.00219078
0.00224307
0.00230072
0.00235614
0.00240783
0.00245599
0.00250107
0.00254342
0.00258278
0.00261839
0.00264961
0.00267644
0.0026991
0.00271762
0.00273182
0.00274136
0.00274576
0.0027453
0.00273978
0.00272882
0.00271264
0.00269108
0.00266396
0.00263126
0.00259294
0.00254896
0.00249939
0.0024443
0.00238387
0.00231846
0.00224877
0.00217581
0.00210081
0.00202526
0.00195111
0.0018806
0.00181582
0.00175185
0.001686
0.00161832
0.00154913
0.00147872
0.00140724
0.00133495
0.00126215
0.00118907
0.00111614
0.00104355
0.000971623
0.00090101
0.00083185
0.000764453
0.000699175
0.000636298
0.000576131
0.000518868
0.000464801
0.000414104
0.000366885
0.000323281
0.000283287
0.000246847
0.000213882
0.000184301
0.000157949
0.000134665
0.000114269
9.65259e-05
8.12206e-05
6.8176e-05
5.71895e-05
4.80427e-05
4.05493e-05
3.45332e-05
2.98297e-05
2.63357e-05
2.40091e-05
2.28867e-05
2.31383e-05
2.51558e-05
2.96844e-05
3.63136e-05
4.34268e-05
5.09435e-05
5.87811e-05
6.68473e-05
7.50957e-05
8.35335e-05
9.21918e-05
0.000101028
0.000109987
0.000119057
0.000128241
0.000137501
0.000146801
0.000156139
0.00016557
0.000174949
0.000184118
0.000193122
0.000202062
0.000210927
0.000219645
0.000228251
0.000236783
0.00024522
0.000253517
0.000261595
0.000269499
0.000277321
0.000285005
0.000292437
0.000299547
0.000306322
0.000312796
0.00031898
0.000324853
0.00033048
0.000335938
0.000341295
0.000346591
0.000351847
0.000357055
0.000362198
0.000367305
0.000372404
0.000377491
0.00038252
0.000387488
0.000392343
0.000396883
0.000400938
0.000404523
0.000407776
0.000410852
0.0004138
0.000416598
0.00041928
0.000421964
0.000424523
0.000427254
0.000430015
0.000432729
0.000435173
0.000437069
0.000438165
0.000438391
0.000437671
0.000435824
0.000433268
0.000430486
0.000427484
0.000424005
0.000419953
0.000415298
0.000410153
0.000404148
0.000397312
0.000389877
0.000382023
0.000374137
0.000366138
0.000358035
0.000349789
0.000341364
0.000332644
0.00032362
0.00031426
0.000304383
0.000293888
0.000282924
0.000271589
0.000260208
0.000249352
0.000239199
0.000229587
0.000220331
0.000211442
0.000203107
0.000195515
0.000188629
0.000182098
0.000175608
0.000169088
0.000162516
0.00015577
0.000148733
0.000141751
0.000135424
0.000130088
0.000125987
0.000123401
0.000122494
0.000123109
0.000125258
0.000128484
0.000132017
0.000135718
0.000139344
0.000142907
0.000146562
0.000150287
0.000154354
0.000159511
0.0001661
0.00017438
0.000184695
0.000197086
0.000209699
0.000220955
0.000231
0.000240897
0.000251399
0.000263282
0.000277446
0.000294538
0.000315181
0.000337563
0.000358104
0.000376512
0.000393557
0.000409839
0.000424872
0.00043739
0.000447285
0.000455489
0.000462517
0.000467956
0.000471948
0.000473919
0.000473743
0.000468835
0.000464545
0.000463981
0.000470593
0.000481534
0.000486149
0.000485835
0.000478307
0.000469348
0.000465089
0.000464408
0.000470523
0.000487886
0.00050916
0.000530449
0.000550517
0.000569625
0.000589218
0.000608829
0.000624263
0.000635303
0.000644654
0.000654773
0.00067004
0.000688365
0.000702956
0.000714879
0.000725977
0.000739862
0.000759961
0.000785393
0.00081158
0.000834567
0.000855184
0.000872707
0.000884535
0.000889564
0.00088998
0.000885736
0.000876276
0.000863952
0.000850005
0.000835374
0.000822428
0.000811959
0.000804808
0.000800768
0.000796841
0.000787422
0.000771632
0.000749468
0.000714036
0.000661603
0.000607227
0.000559919
0.000518373
0.000482505
0.000454533
0.000437222
0.000427573
0.000419126
0.000409266
0.000395627
0.000376595
0.000351607
0.000327694
0.000311663
0.000305301
0.000306408
0.000318661
0.000333585
0.000343665
0.000349281
0.000350852
0.000349776
0.00035219
0.000361942
0.000380422
0.000402329
0.000420048
0.0004353
0.000450962
0.000469827
0.000495123
0.000519387
0.000541147
0.000557853
0.000566233
0.000568853
0.000568045
0.000566347
0.000564891
0.000562065
0.000556887
0.000552557
0.000549313
0.000545822
0.000539208
0.000526112
0.000511296
0.00049829
0.00048505
0.000468413
0.000444265
0.000413105
0.000383804
0.000356682
0.00033126
0.000306894
0.000282903
0.000258305
0.000231137
0.000203292
0.000177141
0.000154429
0.00013347
0.000113049
9.39435e-05
7.75682e-05
6.47808e-05
5.48054e-05
4.67672e-05
4.0085e-05
3.48827e-05
3.13934e-05
2.89684e-05
2.5978e-05
2.31523e-05
2.134e-05
2.11771e-05
2.2121e-05
2.3448e-05
2.47861e-05
2.57597e-05
2.64827e-05
2.76213e-05
2.99836e-05
3.43806e-05
4.05696e-05
4.66975e-05
5.1029e-05
5.54103e-05
6.17647e-05
7.09001e-05
8.22436e-05
9.42273e-05
0.000106654
0.000119253
0.000130883
0.000140684
0.000148968
0.00015671
0.000164882
0.000173531
0.000177219
0.000177332
0.000176195
0.000176143
0.000175954
0.000174729
0.000175339
0.000176974
0.000170824
0.000151121
0.00012611
0.000111388
0.000100202
9.01357e-05
7.98257e-05
7.07296e-05
6.86183e-05
8.36969e-05
0.000116682
0.000152667
0.000189709
0.000224303
0.00024984
0.000261186
0.000258455
0.000251569
0.000244298
0.00023549
0.000223186
0.000207666
0.000191287
0.000177343
0.000169712
0.000168773
0.000176706
0.000191677
0.000209901
0.000231476
0.000257011
0.000289739
0.000333112
0.000386755
0.000445684
0.000504526
0.00056434
0.00063437
0.000707614
0.000770325
0.000815216
0.000837526
0.000841219
0.000835282
0.000828168
0.000818241
0.000802628
0.00078663
0.000771419
0.000759968
0.000752852
0.000748472
0.000746324
0.000747145
0.000749945
0.000753873
0.000757519
0.000763222
0.000770941
0.000779357
0.000788711
0.000799903
0.000810706
0.000817136
0.000817922
0.000812993
0.000806636
0.000801104
0.000800253
0.000800157
0.000800717
0.000805349
0.000817783
0.000829677
0.000834833
0.000830643
0.000816067
0.000805681
0.000800807
0.000798156
0.000797127
0.000797939
0.000800748
0.000805107
0.00080822
0.000810062
0.000811832
0.000813183
0.000816096
0.000821816
0.0008313
0.000851166
0.000873583
0.000881563
0.00087198
0.000860729
0.000857265
0.000856959
0.000860961
0.000876596
0.000894703
0.000902926
0.000903188
0.000901229
0.000904198
0.00091811
0.000932717
0.000938128
0.000936429
0.000935832
0.000940907
0.000951504
0.000961146
0.000967971
0.000973953
0.000983563
0.00100091
0.00102686
0.00104401
0.00104759
0.00103633
0.00102393
0.0010194
0.00101903
0.00102169
0.00102692
0.00102977
0.00102936
0.00102524
0.00102049
0.00101843
0.0010202
0.00103359
0.00106581
0.00109352
0.00110531
0.00110253
0.00109047
0.00108338
0.00107937
0.00107604
0.00106973
0.00106202
0.00105729
0.00105547
0.00105606
0.00105839
0.00106318
0.00106963
0.00107716
0.00108681
0.00110135
0.00112422
0.00114591
0.00115892
0.00116289
0.00115802
0.00114306
0.00112902
0.00111851
0.00110945
0.001099
0.00108747
0.00107609
0.00106391
0.0010507
0.0010377
0.00102408
0.0010123
0.00100366
0.000996164
0.000985048
0.000964865
0.000937922
0.000905368
0.000865912
0.000825949
0.000789953
0.000758335
0.00072966
0.000701611
0.000671085
0.000635474
0.000594991
0.000556858
0.000524493
0.000498904
0.000479136
0.000462043
0.000444126
0.00042355
0.00040114
0.000378919
0.00035733
0.000337102
0.000318969
0.000303496
0.000290599
0.000278679
0.000266289
0.000252733
0.00023706
0.000221625
0.000208492
0.000197691
0.000188192
0.00017871
0.00016786
0.000156994
0.000148532
0.000143412
0.000140985
0.000138986
0.000135652
0.000130055
0.000123361
0.000117081
0.000111383
0.000106354
0.000101267
9.46631e-05
8.70695e-05
8.12525e-05
7.74438e-05
7.49967e-05
7.26028e-05
7.01723e-05
6.88986e-05
6.73446e-05
6.49789e-05
6.05346e-05
5.82058e-05
5.80406e-05
6.03683e-05
6.29957e-05
6.49732e-05
6.58204e-05
6.60006e-05
6.62291e-05
6.68823e-05
6.70241e-05
6.6721e-05
6.69368e-05
6.84885e-05
7.26375e-05
8.12836e-05
9.4346e-05
0.000109969
0.00012677
0.000140726
0.000153866
0.000173708
0.000204078
0.000242215
0.000278901
0.000310663
0.000337976
0.000361267
0.000376662
0.000381257
0.0003693
0.00034349
0.000314017
0.00028445
0.00025305
0.000220369
0.000187883
0.000157536
0.000130717
0.000107414
8.75725e-05
6.94799e-05
5.32265e-05
4.0905e-05
3.31316e-05
2.85791e-05
2.44683e-05
2.07621e-05
1.80514e-05
1.60872e-05
1.58137e-05
1.84553e-05
2.424e-05
3.15746e-05
3.91421e-05
4.30688e-05
4.23165e-05
4.01015e-05
3.7966e-05
3.75133e-05
3.85754e-05
4.08934e-05
4.3385e-05
4.49983e-05
4.67292e-05
4.9335e-05
5.2806e-05
5.46921e-05
5.39731e-05
5.2759e-05
5.19719e-05
5.31557e-05
5.67689e-05
6.11658e-05
6.27596e-05
6.01147e-05
5.52504e-05
4.89993e-05
4.18722e-05
3.40087e-05
2.53854e-05
3.1918e-05
4.18093e-05
5.07461e-05
5.5117e-05
5.38944e-05
4.89909e-05
3.63656e-05
3.10894e-05
3.92754e-05
5.55432e-05
7.05816e-05
7.75596e-05
7.60193e-05
6.80045e-05
5.49435e-05
5.94188e-05
9.08834e-05
0.000135627
0.000168851
0.000193342
0.000216943
0.000243818
0.000273629
0.000298991
0.000314773
0.000321514
0.000318236
0.000309333
0.000300019
0.000292697
0.000288674
0.000288793
0.000292659
0.000296681
0.000299518
0.000301371
0.000303733
0.000306281
0.000308634
0.000311503
0.000313896
0.000315274
0.000316628
0.000320225
0.00032581
0.000333579
0.000341838
0.000347703
0.000349874
0.000348834
0.00034445
0.000340256
0.000336637
0.000332676
0.000326732
0.000319029
0.00031167
0.00030767
0.000307707
0.000311063
0.000315364
0.00031829
0.000318836
0.000315973
0.000313694
0.000314334
0.000317933
0.000324127
0.000332094
0.000340008
0.000347232
0.000352441
0.000354321
0.000352717
0.000346544
0.000337862
0.000330205
0.000324188
0.00031886
0.000313405
0.000306964
0.000301206
0.000297193
0.000294533
0.000292824
0.000291555
0.000289852
0.000286816
0.000281981
0.000275665
0.000268254
0.000260227
0.000251695
0.00024187
0.000231634
0.000223849
0.000220158
0.000220146
0.000223337
0.000229531
0.000238302
0.000249944
0.000261813
0.000269946
0.000273766
0.000276418
0.000282989
0.000297231
0.000315477
0.000329274
0.000337637
0.000341311
0.000341035
0.000335781
0.000325853
0.000315594
0.000307502
0.000302984
0.000300798
0.0002978
0.000290242
0.000278387
0.000266618
0.000259106
0.000257022
0.000260809
0.000273391
0.000296708
0.000333122
0.000369171
0.00039038
0.000396464
0.000393099
0.000379198
0.000361662
0.000348518
0.000338449
0.000328937
0.000317378
0.000299183
0.000271057
0.00023713
0.000207851
0.00018771
0.00017888
0.000178912
0.000186785
0.000197985
0.000205828
0.000208549
0.000206307
0.000195241
0.000177951
0.000157212
0.000138863
0.000125033
0.000116853
0.000113627
0.000113307
0.000114994
0.000114655
0.000112762
0.000108504
0.000101039
9.40035e-05
8.94028e-05
8.7003e-05
8.51299e-05
8.15773e-05
7.63125e-05
6.93341e-05
6.34808e-05
6.05923e-05
6.26472e-05
8.24401e-05
0.000120217
0.000165696
0.000200833
0.000222441
0.000230915
0.000231942
0.000223619
0.000209164
0.000191584
0.00017722
0.000169841
0.000168751
0.000175552
0.000201064
0.000248564
0.000282544
0.000296775
0.000296632
0.000277986
0.000236773
0.000199632
0.000169544
0.000151334
0.000145526
0.000167058
0.000208288
0.000234498
0.000241825
0.00022707
0.00016787
0.000112588
7.2498e-05
5.4313e-05
6.18653e-05
8.53975e-05
0.000113378
0.000133189
0.000140999
0.000118863
9.66076e-05
8.02983e-05
7.19259e-05
7.03178e-05
7.59923e-05
8.05845e-05
8.29667e-05
7.89854e-05
6.87334e-05
5.33334e-05
3.90051e-05
2.80231e-05
2.04402e-05
1.5122e-05
9.72639e-06
9.95897e-06
1.98118e-05
4.02736e-05
6.20076e-05
7.15518e-05
6.2348e-05
4.42502e-05
2.72991e-05
3.37249e-05
2.43581e-05
1.13089e-05
3.35313e-05
7.58128e-05
9.19686e-05
9.2436e-05
5.97981e-05
3.44399e-05
1.71123e-05
8.88518e-06
1.24793e-05
9.32065e-05
0.000143051
0.000153977
0.000136649
7.76394e-05
3.27279e-05
9.5725e-06
3.60548e-05
0.000154487
0.000233899
0.000259743
0.00022434
0.000166218
0.000110656
6.95111e-05
5.81253e-05
8.77841e-05
0.000111177
0.000115686
0.00010592
8.63231e-05
6.7992e-05
5.71225e-05
5.91966e-05
7.46336e-05
8.93864e-05
9.22053e-05
8.10286e-05
7.22342e-05
7.0846e-05
7.68655e-05
9.23312e-05
0.000120607
0.000154582
0.00018328
0.000200932
0.000212094
0.000223671
0.000239744
0.000255216
0.000264844
0.00026598
0.000261311
0.000256785
0.000260231
0.000271254
0.000288105
0.000301795
0.000306207
0.000300659
0.000287793
0.000271214
0.000258447
0.00025115
0.000248392
0.000247808
0.000246866
0.000244778
0.000243662
0.000244084
0.000246608
0.000253753
0.000263773
0.000269492
0.000270342
0.000267234
0.000262563
0.000255159
0.000247129
0.000234898
0.000222299
0.000212314
0.00020712
0.00020582
0.000207678
0.000213324
0.000216328
0.000211312
0.000198097
0.000183069
0.000173635
0.000168818
0.000166815
0.000165035
0.000158023
0.000146715
0.000138485
0.000132285
0.000130066
0.000135247
0.000145088
0.000146227
0.000135888
0.000127712
0.000126394
0.000138963
0.000162071
0.000174573
0.000176431
0.000165876
0.000139187
0.000121045
0.000108385
9.80175e-05
9.14973e-05
9.41006e-05
0.000134
0.000163156
0.000167106
0.000157789
0.000167543
0.000192616
0.000207799
0.000211465
0.000203089
0.000187514
0.000178975
0.000192638
0.000223137
0.000238278
0.000240923
0.000238978
0.000252262
0.000284183
0.000294862
0.000290571
0.000280895
0.000278444
0.000296233
0.000329959
0.000345303
0.000342971
0.000305317
0.000271956
0.00025937
0.000264115
0.000287601
0.000295925
0.000279716
0.00026238
0.000260079
0.000288285
0.000354192
0.000399763
0.000407472
0.000373731
0.000343797
0.000334076
0.000333644
0.000334934
0.000326617
0.000311155
0.000308247
0.00033184
0.00035307
0.000344803
0.000299156
0.000274907
0.00026351
0.00025753
0.00025703
0.000269434
0.000276928
0.000278348
0.000277174
0.000272673
0.000262203
0.000246718
0.000237275
0.000235209
0.000242169
0.00024492
0.000234799
0.000226237
0.000226092
0.000231713
0.000214004
0.000142017
9.5122e-05
8.69452e-05
0.000181716
0.000239358
0.000231507
0.000243901
0.000432763
0.000464568
0.000350999
0.00024787
0.000195468
0.000241728
0.00044672
0.000456564
0.000258163
0.000169844
0.000125341
0.000135374
0.000256524
0.000278758
0.000228822
0.000220293
0.000216567
0.000187893
0.000146088
0.00010751
6.22226e-05
0.000168873
0.0002083
0.000171264
0.00012644
9.1102e-05
7.22956e-05
0.000131235
0.000175603
0.000189661
0.000164751
0.000134544
8.49863e-05
4.87217e-05
2.89606e-05
2.9698e-05
7.04016e-05
0.000112394
0.000139895
0.00015856
0.000171267
0.000176842
0.00017794
0.00017724
0.000178755
0.000187735
0.00019674
0.000198623
0.000173196
0.000154985
0.000149173
0.000152971
0.000116989
0.00010106
0.000120139
0.000151636
0.000165339
0.000174463
0.000186003
0.000192302
0.000192918
0.000189028
0.000182407
0.000177689
0.000173702
0.000158584
0.000137187
0.000116457
9.25946e-05
6.88831e-05
5.08856e-05
4.53904e-05
5.73411e-05
6.19038e-05
6.62416e-05
6.91042e-05
6.43164e-05
5.94757e-05
5.76599e-05
6.37397e-05
6.62023e-05
6.09481e-05
5.957e-05
6.23636e-05
6.35106e-05
6.29163e-05
6.14555e-05
6.09018e-05
6.18606e-05
5.62945e-05
4.96484e-05
6.04481e-05
7.91477e-05
8.82818e-05
8.56193e-05
8.79585e-05
9.35947e-05
9.13361e-05
8.31297e-05
7.89761e-05
6.83078e-05
6.12777e-05
6.61357e-05
6.07798e-05
4.55562e-05
4.39563e-05
4.6097e-05
4.36405e-05
4.10573e-05
3.84078e-05
3.80774e-05
5.05762e-05
7.22501e-05
8.46794e-05
7.12273e-05
4.06866e-05
1.30977e-05
6.21827e-06
2.66176e-05
1.89286e-05
8.01675e-06
1.41252e-05
1.74941e-05
2.00004e-05
2.20985e-05