/*--------------------------------*- C++ -*----------------------------------*\
| =========                 |                                                 |
| \\      /  F ield         | OpenFOAM: The Open Source CFD Toolbox           |
|  \\    /   O peration     | Version:  v1812                                 |
|   \\  /    A nd           | Web:      www.OpenFOAM.com                      |
|    \\/     M anipulation  |                                                 |
\*---------------------------------------------------------------------------*/
FoamFile
{
    version     2.0;
    format      ascii;
    class       volScalarField;
    location    "120";
    object      nut;
}
// * * * * * * * * * * * * * * * * * * * * * * * * * * * * * * * * * * * * * //

dimensions      [0 2 -1 0 0 0 0];


internalField   nonuniform List<scalar> 
212248
(
6.37954e-08
5.77781e-08
5.0665e-08
4.43657e-08
3.90996e-08
3.49338e-08
3.18966e-08
3.00314e-08
2.94245e-08
3.02681e-08
3.28885e-08
3.78331e-08
4.59696e-08
5.84966e-08
7.43403e-08
9.18752e-08
1.11097e-07
1.31952e-07
1.5438e-07
1.78307e-07
2.03658e-07
2.30353e-07
2.58309e-07
2.87446e-07
3.17678e-07
3.48923e-07
3.81096e-07
4.14115e-07
4.47899e-07
4.82366e-07
5.17439e-07
5.5304e-07
5.89095e-07
6.2553e-07
6.62277e-07
6.99266e-07
7.36433e-07
7.73715e-07
8.1105e-07
8.48381e-07
8.85652e-07
9.22809e-07
9.59803e-07
9.96583e-07
1.0331e-06
1.06932e-06
1.10518e-06
1.14066e-06
1.17571e-06
1.2103e-06
1.24439e-06
1.27795e-06
1.31094e-06
1.34334e-06
1.37511e-06
1.40623e-06
1.43667e-06
1.46641e-06
1.49542e-06
1.52368e-06
1.55116e-06
1.57785e-06
1.60373e-06
1.62877e-06
1.65297e-06
1.67629e-06
1.69874e-06
1.72028e-06
1.74091e-06
1.7606e-06
1.77935e-06
1.79715e-06
1.81397e-06
1.8298e-06
1.84465e-06
1.85848e-06
1.87129e-06
1.88308e-06
1.89383e-06
1.90353e-06
1.91217e-06
1.91975e-06
1.92625e-06
1.93166e-06
1.93598e-06
1.93919e-06
1.94128e-06
1.94224e-06
1.94212e-06
1.94084e-06
1.93836e-06
1.93472e-06
1.92992e-06
1.92402e-06
1.91698e-06
1.90882e-06
1.89953e-06
1.8891e-06
1.87755e-06
1.86487e-06
1.85107e-06
1.83613e-06
1.82008e-06
1.8029e-06
1.7846e-06
1.76519e-06
1.74466e-06
1.72303e-06
1.70029e-06
1.67646e-06
1.65155e-06
1.62555e-06
1.59848e-06
1.57035e-06
1.54118e-06
1.51097e-06
1.47974e-06
1.4475e-06
1.41429e-06
1.38011e-06
1.34499e-06
1.30897e-06
1.27207e-06
1.23432e-06
1.19578e-06
1.15647e-06
1.11645e-06
1.07578e-06
1.03452e-06
9.92735e-07
9.50502e-07
9.07908e-07
8.65041e-07
8.22001e-07
7.78894e-07
7.35837e-07
6.92951e-07
6.50367e-07
6.08222e-07
5.66658e-07
5.25821e-07
4.8586e-07
4.46926e-07
4.09165e-07
3.72724e-07
3.37741e-07
3.04347e-07
2.72661e-07
2.42794e-07
2.14835e-07
1.8886e-07
1.64923e-07
1.43056e-07
1.2327e-07
1.05554e-07
8.98756e-08
7.61781e-08
6.43861e-08
5.44069e-08
4.61361e-08
3.94644e-08
3.42871e-08
3.05188e-08
2.81115e-08
2.70796e-08
2.75324e-08
2.97403e-08
3.41785e-08
4.162e-08
5.3161e-08
6.73312e-08
8.28382e-08
9.96e-08
1.17514e-07
1.36482e-07
1.56407e-07
1.77194e-07
1.98754e-07
2.20999e-07
2.43846e-07
2.67217e-07
2.91037e-07
3.15236e-07
3.39747e-07
3.64508e-07
3.89462e-07
4.14554e-07
4.39734e-07
4.64955e-07
4.90175e-07
5.15352e-07
5.40451e-07
5.65438e-07
5.90281e-07
6.14953e-07
6.39427e-07
6.63681e-07
6.87693e-07
7.11444e-07
7.34917e-07
7.58095e-07
7.80967e-07
8.03518e-07
8.25738e-07
8.47617e-07
8.69147e-07
8.90321e-07
9.11132e-07
9.31574e-07
9.51644e-07
9.71338e-07
9.90652e-07
1.00958e-06
1.02813e-06
1.0463e-06
1.06408e-06
1.08147e-06
1.09848e-06
1.1151e-06
1.13134e-06
1.1472e-06
1.16268e-06
1.17778e-06
1.1925e-06
1.20685e-06
1.22082e-06
1.23443e-06
1.24767e-06
1.26054e-06
1.27305e-06
1.2852e-06
1.297e-06
1.30844e-06
1.31953e-06
1.33028e-06
1.34068e-06
1.35074e-06
1.36046e-06
1.36984e-06
1.37889e-06
1.38761e-06
1.396e-06
1.40407e-06
1.41181e-06
1.41924e-06
1.42634e-06
1.43313e-06
1.43961e-06
1.44578e-06
1.45163e-06
1.45718e-06
1.46242e-06
1.46736e-06
1.472e-06
1.47633e-06
1.48036e-06
1.4841e-06
1.48753e-06
1.49067e-06
1.4935e-06
1.49605e-06
1.49829e-06
1.50024e-06
1.50188e-06
1.50324e-06
1.50429e-06
1.50504e-06
1.50549e-06
1.50566e-06
1.50551e-06
1.50505e-06
1.50429e-06
1.50324e-06
1.50188e-06
1.5002e-06
1.49822e-06
1.49595e-06
1.49338e-06
1.49051e-06
1.48733e-06
1.48381e-06
1.47996e-06
1.47578e-06
1.47128e-06
1.46645e-06
1.46129e-06
1.45579e-06
1.44996e-06
1.44379e-06
1.43728e-06
1.43042e-06
1.42321e-06
1.41565e-06
1.40773e-06
1.39944e-06
1.3908e-06
1.38178e-06
1.37239e-06
1.36263e-06
1.35249e-06
1.34197e-06
1.33106e-06
1.31976e-06
1.30807e-06
1.29599e-06
1.28355e-06
1.2706e-06
1.2572e-06
1.24206e-06
1.23018e-06
1.21506e-06
1.2003e-06
1.18497e-06
1.16933e-06
1.15327e-06
1.13685e-06
1.12006e-06
1.1029e-06
1.08539e-06
1.06756e-06
1.0494e-06
1.03095e-06
1.01223e-06
9.93257e-07
9.74067e-07
9.54691e-07
9.35164e-07
9.1553e-07
8.9583e-07
8.76111e-07
8.56423e-07
8.3682e-07
8.17359e-07
7.98101e-07
7.79108e-07
7.60445e-07
7.42174e-07
7.24362e-07
7.0707e-07
6.90361e-07
6.74291e-07
6.58918e-07
6.44291e-07
6.30452e-07
6.17434e-07
6.05267e-07
5.93974e-07
5.83567e-07
5.74035e-07
5.65353e-07
5.57486e-07
5.50386e-07
5.43989e-07
5.3822e-07
5.3299e-07
5.28196e-07
5.23727e-07
5.19472e-07
5.15331e-07
5.1122e-07
5.07018e-07
5.02602e-07
4.9787e-07
4.92717e-07
4.87071e-07
4.8087e-07
4.74056e-07
4.66596e-07
4.58455e-07
4.49601e-07
4.40027e-07
4.2971e-07
4.18659e-07
4.0691e-07
3.94501e-07
3.81493e-07
3.6797e-07
3.53978e-07
3.3956e-07
3.24775e-07
3.09723e-07
2.94518e-07
2.79245e-07
2.63993e-07
2.48871e-07
2.33975e-07
2.19359e-07
2.05084e-07
1.91271e-07
1.78011e-07
1.65324e-07
1.53236e-07
1.41803e-07
1.3108e-07
1.21091e-07
1.11846e-07
1.03335e-07
9.55612e-08
8.85552e-08
8.23291e-08
7.68758e-08
7.21871e-08
6.83012e-08
6.53071e-08
6.33203e-08
6.24797e-08
6.30228e-08
6.53285e-08
7.00022e-08
7.79332e-08
9.02303e-08
1.04752e-07
1.20419e-07
1.37215e-07
1.55079e-07
1.73993e-07
1.93912e-07
2.14778e-07
2.3654e-07
2.59148e-07
2.82556e-07
3.06694e-07
3.31504e-07
3.56945e-07
3.82946e-07
4.09441e-07
4.36373e-07
4.63678e-07
4.91302e-07
5.19185e-07
5.47268e-07
5.75494e-07
6.03801e-07
6.32133e-07
6.60438e-07
6.88661e-07
7.16736e-07
7.44621e-07
7.723e-07
7.99714e-07
8.26796e-07
8.53533e-07
8.79922e-07
9.05926e-07
9.31472e-07
9.56551e-07
9.81191e-07
1.00537e-06
1.02903e-06
1.05215e-06
1.07476e-06
1.09684e-06
1.11831e-06
1.13914e-06
1.15935e-06
1.17892e-06
1.19778e-06
1.21587e-06
1.23318e-06
1.24973e-06
1.26547e-06
1.28048e-06
1.29439e-06
1.30751e-06
1.3183e-06
1.32899e-06
1.33559e-06
1.33912e-06
1.33378e-06
1.30892e-06
1.32522e-06
1.36709e-06
1.4023e-06
1.41407e-06
1.42094e-06
1.42856e-06
1.4385e-06
1.45051e-06
1.46063e-06
1.46726e-06
1.47114e-06
1.47302e-06
1.47367e-06
1.47365e-06
1.47332e-06
1.4727e-06
1.47153e-06
1.46957e-06
1.46672e-06
1.46298e-06
1.45838e-06
1.45291e-06
1.44658e-06
1.43942e-06
1.43144e-06
1.42263e-06
1.41301e-06
1.40258e-06
1.39136e-06
1.37935e-06
1.36656e-06
1.35301e-06
1.33872e-06
1.32369e-06
1.30795e-06
1.29152e-06
1.27442e-06
1.25666e-06
1.23826e-06
1.21925e-06
1.19965e-06
1.17947e-06
1.15872e-06
1.13743e-06
1.11562e-06
1.09332e-06
1.07054e-06
1.04731e-06
1.02367e-06
9.99633e-07
9.75215e-07
9.50457e-07
9.25388e-07
9.00018e-07
8.74374e-07
8.4851e-07
8.22451e-07
7.96203e-07
7.69803e-07
7.43315e-07
7.16774e-07
6.90179e-07
6.63573e-07
6.37019e-07
6.10559e-07
5.8421e-07
5.57988e-07
5.31969e-07
5.06213e-07
4.80765e-07
4.55641e-07
4.30887e-07
4.06586e-07
3.828e-07
3.59555e-07
3.36872e-07
3.14809e-07
2.93443e-07
2.72816e-07
2.52952e-07
2.33889e-07
2.15658e-07
1.98311e-07
1.81879e-07
1.66368e-07
1.51788e-07
1.38149e-07
1.2547e-07
1.13745e-07
1.02945e-07
9.3045e-08
8.40248e-08
7.58689e-08
6.85334e-08
6.19709e-08
5.61335e-08
5.09977e-08
4.65246e-08
4.26639e-08
3.93905e-08
3.66887e-08
3.45474e-08
3.29669e-08
3.19766e-08
3.16252e-08
3.19962e-08
3.32298e-08
3.55233e-08
3.91683e-08
4.45735e-08
5.14501e-08
5.87822e-08
6.65203e-08
7.46348e-08
8.31037e-08
9.19019e-08
1.00988e-07
1.10324e-07
1.19902e-07
1.2971e-07
1.39698e-07
1.49821e-07
1.60069e-07
1.70451e-07
1.80938e-07
1.91481e-07
2.02055e-07
2.12663e-07
2.23292e-07
2.33914e-07
2.44512e-07
2.55078e-07
2.65596e-07
2.76043e-07
2.86406e-07
2.96682e-07
3.06862e-07
3.16921e-07
3.26848e-07
3.36641e-07
3.46297e-07
3.5581e-07
3.65167e-07
3.74361e-07
3.83395e-07
3.92283e-07
4.01008e-07
4.09555e-07
4.17898e-07
4.26078e-07
4.34097e-07
4.41919e-07
4.49523e-07
4.56918e-07
4.64149e-07
4.71188e-07
4.78017e-07
4.8463e-07
4.9105e-07
4.97302e-07
5.03363e-07
5.09229e-07
5.14913e-07
5.20413e-07
5.25733e-07
5.30889e-07
5.35876e-07
5.40693e-07
5.45348e-07
5.49863e-07
5.54252e-07
5.58504e-07
5.62632e-07
5.66646e-07
5.70561e-07
5.74371e-07
5.78081e-07
5.817e-07
5.85244e-07
5.8872e-07
5.92137e-07
5.9549e-07
5.98779e-07
6.02014e-07
6.05205e-07
6.08359e-07
6.11476e-07
6.14554e-07
6.17587e-07
6.20592e-07
6.2359e-07
6.26571e-07
6.29513e-07
6.32421e-07
6.35326e-07
6.38278e-07
6.41232e-07
6.44132e-07
6.47005e-07
6.49904e-07
6.52891e-07
6.55879e-07
6.58829e-07
6.6177e-07
6.6476e-07
6.67843e-07
6.70915e-07
6.73967e-07
6.77026e-07
6.80158e-07
6.83361e-07
6.86535e-07
6.89696e-07
6.92889e-07
6.96175e-07
6.99447e-07
7.02687e-07
7.05926e-07
7.09228e-07
7.12539e-07
7.15801e-07
7.19037e-07
7.22277e-07
7.25513e-07
7.28686e-07
7.31787e-07
7.34845e-07
7.37871e-07
7.40824e-07
7.43659e-07
7.46375e-07
7.49e-07
7.51522e-07
7.53891e-07
7.56076e-07
7.58087e-07
7.59937e-07
7.61602e-07
7.63037e-07
7.6422e-07
7.65155e-07
7.65841e-07
7.66253e-07
7.66371e-07
7.66143e-07
7.65588e-07
7.6471e-07
7.63468e-07
7.61854e-07
7.59841e-07
7.57446e-07
7.54679e-07
7.51509e-07
7.47897e-07
7.43858e-07
7.39389e-07
7.3449e-07
7.29166e-07
7.23361e-07
7.17069e-07
7.10348e-07
7.03162e-07
6.95498e-07
6.87371e-07
6.78774e-07
6.69708e-07
6.60172e-07
6.50167e-07
6.3969e-07
6.28736e-07
6.17308e-07
6.0541e-07
5.9307e-07
5.8027e-07
5.67012e-07
5.53338e-07
5.39255e-07
5.2475e-07
5.09864e-07
4.94626e-07
4.79067e-07
4.63179e-07
4.47019e-07
4.30612e-07
4.14007e-07
3.97238e-07
3.80357e-07
3.63405e-07
3.46429e-07
3.29481e-07
3.12622e-07
2.95909e-07
2.79411e-07
2.632e-07
2.47338e-07
2.31888e-07
2.16913e-07
2.02466e-07
1.88593e-07
1.75348e-07
1.62773e-07
1.5091e-07
1.39805e-07
1.29492e-07
1.19993e-07
1.11343e-07
1.03584e-07
9.67499e-08
9.09316e-08
8.62072e-08
8.2759e-08
8.08075e-08
8.07516e-08
8.31959e-08
8.90451e-08
9.97281e-08
1.16893e-07
1.37073e-07
1.59134e-07
1.83037e-07
2.08743e-07
2.36214e-07
2.65374e-07
2.96144e-07
3.28458e-07
3.62232e-07
3.97386e-07
4.33819e-07
4.71404e-07
5.10066e-07
5.49738e-07
5.9028e-07
6.31599e-07
6.73633e-07
7.16276e-07
7.59422e-07
8.02981e-07
8.46924e-07
8.91145e-07
9.35495e-07
9.79977e-07
1.02453e-06
1.069e-06
1.11335e-06
1.15752e-06
1.20144e-06
1.24502e-06
1.28822e-06
1.33099e-06
1.37324e-06
1.41495e-06
1.45607e-06
1.49651e-06
1.53622e-06
1.5752e-06
1.61337e-06
1.65066e-06
1.68703e-06
1.72249e-06
1.75698e-06
1.79038e-06
1.82267e-06
1.85385e-06
1.88388e-06
1.91269e-06
1.94024e-06
1.96654e-06
1.99157e-06
2.01527e-06
2.03761e-06
2.0586e-06
2.07824e-06
2.09649e-06
2.11332e-06
2.12871e-06
2.14265e-06
2.15512e-06
2.16609e-06
2.17558e-06
2.18358e-06
2.19014e-06
2.19525e-06
2.19892e-06
2.20112e-06
2.20187e-06
2.20127e-06
2.19915e-06
2.19557e-06
2.19062e-06
2.18433e-06
2.17675e-06
2.16786e-06
2.15763e-06
2.14608e-06
2.13325e-06
2.11923e-06
2.10405e-06
2.08764e-06
2.0699e-06
2.05081e-06
2.0304e-06
2.00877e-06
1.98596e-06
1.96192e-06
1.93663e-06
1.91007e-06
1.88229e-06
1.85333e-06
1.82316e-06
1.79174e-06
1.75903e-06
1.72508e-06
1.68998e-06
1.65372e-06
1.61629e-06
1.57769e-06
1.53794e-06
1.49707e-06
1.45514e-06
1.41219e-06
1.36829e-06
1.32344e-06
1.27771e-06
1.23115e-06
1.18383e-06
1.13585e-06
1.08721e-06
1.03807e-06
9.88548e-07
9.38804e-07
8.89111e-07
8.39506e-07
7.90168e-07
7.41328e-07
6.93145e-07
6.45819e-07
5.99554e-07
5.54567e-07
5.11044e-07
4.69142e-07
4.29059e-07
3.90938e-07
3.54821e-07
3.20833e-07
2.89048e-07
2.59492e-07
2.32168e-07
2.07118e-07
1.8432e-07
1.63673e-07
1.45067e-07
1.2845e-07
1.13737e-07
1.00784e-07
8.94632e-08
7.96696e-08
7.12976e-08
6.42386e-08
5.84005e-08
5.37084e-08
5.01214e-08
4.76429e-08
4.63102e-08
4.62065e-08
4.74884e-08
5.04416e-08
5.55045e-08
6.32171e-08
7.21391e-08
8.13586e-08
9.08382e-08
1.00467e-07
1.10144e-07
1.19794e-07
1.29374e-07
1.38913e-07
1.48368e-07
1.57626e-07
1.66693e-07
1.75572e-07
1.84291e-07
1.92819e-07
2.01021e-07
2.08885e-07
2.16561e-07
2.24039e-07
2.31376e-07
2.38574e-07
2.45448e-07
2.52006e-07
2.58245e-07
2.64201e-07
2.69907e-07
2.75354e-07
2.80661e-07
2.85789e-07
2.90642e-07
2.95244e-07
2.99617e-07
3.03797e-07
3.07766e-07
3.11528e-07
3.15051e-07
3.18381e-07
3.21553e-07
3.2457e-07
3.27367e-07
3.29963e-07
3.32339e-07
3.3453e-07
3.36574e-07
3.38457e-07
3.40181e-07
3.41775e-07
3.43296e-07
3.44733e-07
3.46037e-07
3.47258e-07
3.4844e-07
3.49562e-07
3.50617e-07
3.51641e-07
3.527e-07
3.53765e-07
3.54827e-07
3.55877e-07
3.56958e-07
3.58157e-07
3.59484e-07
3.60856e-07
3.62305e-07
3.63944e-07
3.65741e-07
3.67602e-07
3.695e-07
3.71533e-07
3.73819e-07
3.76307e-07
3.78908e-07
3.81586e-07
3.84416e-07
3.87521e-07
3.90798e-07
3.94189e-07
3.97783e-07
4.01483e-07
4.05322e-07
4.0932e-07
4.13577e-07
4.1818e-07
4.22951e-07
4.27783e-07
4.32765e-07
4.37959e-07
4.43309e-07
4.48806e-07
4.54276e-07
4.5979e-07
4.65686e-07
4.71811e-07
4.77849e-07
4.83844e-07
4.89962e-07
4.9624e-07
5.02566e-07
5.08899e-07
5.15211e-07
5.21631e-07
5.28e-07
5.34443e-07
5.40855e-07
5.47265e-07
5.53679e-07
5.60011e-07
5.66284e-07
5.72543e-07
5.78711e-07
5.84772e-07
5.90766e-07
5.96697e-07
6.02572e-07
6.08424e-07
6.14157e-07
6.19669e-07
6.24943e-07
6.30025e-07
6.34968e-07
6.39804e-07
6.44551e-07
6.4924e-07
6.53846e-07
6.58331e-07
6.6269e-07
6.66943e-07
6.71102e-07
6.75174e-07
6.79148e-07
6.83001e-07
6.86707e-07
6.90277e-07
6.9371e-07
6.96972e-07
7.00042e-07
7.02911e-07
7.0558e-07
7.081e-07
7.10471e-07
7.12641e-07
7.14611e-07
7.16396e-07
7.17957e-07
7.19301e-07
7.20351e-07
7.21024e-07
7.21374e-07
7.21447e-07
7.21272e-07
7.20836e-07
7.2012e-07
7.19081e-07
7.17757e-07
7.15927e-07
7.13774e-07
7.11343e-07
7.0853e-07
7.05399e-07
7.02015e-07
6.98282e-07
6.94196e-07
6.8984e-07
6.85139e-07
6.80069e-07
6.74704e-07
6.69001e-07
6.62916e-07
6.56459e-07
6.49683e-07
6.42599e-07
6.35227e-07
6.27648e-07
6.19864e-07
6.11829e-07
6.03548e-07
5.95127e-07
5.86566e-07
5.77688e-07
5.6852e-07
5.59262e-07
5.49894e-07
5.40293e-07
5.304e-07
5.20358e-07
5.10174e-07
4.99719e-07
4.89002e-07
4.782e-07
4.673e-07
4.56261e-07
4.45014e-07
4.33521e-07
4.21909e-07
4.1023e-07
3.98509e-07
3.86683e-07
3.74627e-07
3.62452e-07
3.5031e-07
3.37986e-07
3.25481e-07
3.13153e-07
3.01019e-07
2.88985e-07
2.77011e-07
2.65148e-07
2.53434e-07
2.41908e-07
2.30674e-07
2.19851e-07
2.09504e-07
1.99663e-07
1.90275e-07
1.81384e-07
1.73117e-07
1.65584e-07
1.58894e-07
1.53209e-07
1.48478e-07
1.44795e-07
1.42449e-07
1.41756e-07
1.42942e-07
1.46487e-07
1.53138e-07
1.63881e-07
1.80182e-07
2.04025e-07
2.36372e-07
2.72111e-07
3.10585e-07
3.5205e-07
3.96324e-07
4.43101e-07
4.92183e-07
5.43684e-07
5.97349e-07
6.52912e-07
7.10387e-07
7.69646e-07
8.30528e-07
8.92936e-07
9.56663e-07
1.02144e-06
1.08709e-06
1.15355e-06
1.22065e-06
1.2882e-06
1.35606e-06
1.42408e-06
1.49203e-06
1.55977e-06
1.62715e-06
1.69411e-06
1.7606e-06
1.82646e-06
1.89154e-06
1.95571e-06
2.01884e-06
2.08091e-06
2.14189e-06
2.2017e-06
2.26021e-06
2.31735e-06
2.37302e-06
2.42709e-06
2.47943e-06
2.52992e-06
2.57861e-06
2.62575e-06
2.67165e-06
2.71674e-06
2.76175e-06
2.80811e-06
2.85827e-06
2.91305e-06
2.9652e-06
3.01337e-06
3.05786e-06
3.09917e-06
3.13768e-06
3.17324e-06
3.2052e-06
3.23307e-06
3.25691e-06
3.27698e-06
3.29332e-06
3.30584e-06
3.31423e-06
3.31812e-06
3.31775e-06
3.31295e-06
3.30338e-06
3.28919e-06
3.27021e-06
3.24624e-06
3.21718e-06
3.18291e-06
3.14332e-06
3.0983e-06
3.04783e-06
2.99188e-06
2.93064e-06
2.86457e-06
2.79448e-06
2.72139e-06
2.64667e-06
2.57223e-06
2.50038e-06
2.43344e-06
2.36647e-06
2.29657e-06
2.22366e-06
2.14797e-06
2.06969e-06
1.98888e-06
1.90571e-06
1.82044e-06
1.73323e-06
1.64454e-06
1.55451e-06
1.46349e-06
1.37232e-06
1.28118e-06
1.19052e-06
1.10089e-06
1.01279e-06
9.26769e-07
8.43277e-07
7.6292e-07
6.86169e-07
6.13408e-07
5.45082e-07
4.81418e-07
4.22551e-07
3.68572e-07
3.19527e-07
2.7534e-07
2.35896e-07
2.01033e-07
1.7046e-07
1.43903e-07
1.21131e-07
1.01853e-07
8.57334e-08
7.24798e-08
6.18077e-08
5.34444e-08
4.72206e-08
4.30709e-08
4.10673e-08
4.15162e-08
4.51157e-08
5.31837e-08
6.49657e-08
7.757e-08
9.08469e-08
1.04644e-07
1.18796e-07
1.33216e-07
1.47914e-07
1.62942e-07
1.78221e-07
1.93656e-07
2.09223e-07
2.24923e-07
2.40694e-07
2.56473e-07
2.72255e-07
2.88131e-07
3.03862e-07
3.19181e-07
3.34169e-07
3.48997e-07
3.63649e-07
3.78008e-07
3.92133e-07
4.06088e-07
4.19844e-07
4.33327e-07
4.46411e-07
4.59174e-07
4.71766e-07
4.84098e-07
4.95992e-07
5.0734e-07
5.18122e-07
5.28402e-07
5.38197e-07
5.47477e-07
5.5635e-07
5.64939e-07
5.73351e-07
5.81651e-07
5.89873e-07
5.98003e-07
6.06016e-07
6.13958e-07
6.21873e-07
6.29755e-07
6.37531e-07
6.45199e-07
6.52681e-07
6.59664e-07
6.65892e-07
6.71389e-07
6.76371e-07
6.81077e-07
6.85584e-07
6.89854e-07
6.93945e-07
6.98035e-07
7.0193e-07
7.06083e-07
7.10279e-07
7.14397e-07
7.18103e-07
7.20974e-07
7.22635e-07
7.22975e-07
7.21885e-07
7.19086e-07
7.1521e-07
7.10987e-07
7.06426e-07
7.01134e-07
6.94963e-07
6.87861e-07
6.79998e-07
6.70804e-07
6.6031e-07
6.4887e-07
6.36751e-07
6.24547e-07
6.12133e-07
5.99519e-07
5.86643e-07
5.73447e-07
5.59747e-07
5.45519e-07
5.30712e-07
5.15028e-07
4.98301e-07
4.80754e-07
4.62533e-07
4.44159e-07
4.26557e-07
4.10027e-07
3.94317e-07
3.79131e-07
3.64496e-07
3.50724e-07
3.38141e-07
3.26695e-07
3.15809e-07
3.04964e-07
2.94038e-07
2.82997e-07
2.71632e-07
2.59744e-07
2.47913e-07
2.37163e-07
2.28076e-07
2.21078e-07
2.16659e-07
2.15109e-07
2.1616e-07
2.19834e-07
2.25341e-07
2.31366e-07
2.37667e-07
2.4383e-07
2.49878e-07
2.56073e-07
2.62376e-07
2.69248e-07
2.77945e-07
2.89029e-07
3.02912e-07
3.20135e-07
3.40731e-07
3.61598e-07
3.80139e-07
3.96634e-07
4.12809e-07
4.29897e-07
4.49147e-07
4.71975e-07
4.99362e-07
5.32199e-07
5.67512e-07
5.9966e-07
6.2826e-07
6.54572e-07
6.79548e-07
7.02455e-07
7.21424e-07
7.36362e-07
7.4872e-07
7.59292e-07
7.67502e-07
7.735e-07
7.76447e-07
7.76167e-07
7.68796e-07
7.62364e-07
7.61536e-07
7.71476e-07
7.8783e-07
7.94703e-07
7.94234e-07
7.83008e-07
7.69614e-07
7.63232e-07
7.6221e-07
7.71376e-07
7.97289e-07
8.28826e-07
8.60151e-07
8.8946e-07
9.17158e-07
9.45387e-07
9.7349e-07
9.95519e-07
1.01119e-06
1.02441e-06
1.03866e-06
1.06008e-06
1.08565e-06
1.10589e-06
1.12238e-06
1.13768e-06
1.15674e-06
1.18418e-06
1.21864e-06
1.25385e-06
1.28452e-06
1.31185e-06
1.33494e-06
1.35047e-06
1.35706e-06
1.3576e-06
1.35204e-06
1.33962e-06
1.3234e-06
1.30497e-06
1.28556e-06
1.26831e-06
1.25432e-06
1.24474e-06
1.23932e-06
1.23404e-06
1.22134e-06
1.1999e-06
1.16955e-06
1.12085e-06
1.04797e-06
9.71159e-07
9.03083e-07
8.42358e-07
7.89228e-07
7.47329e-07
7.21187e-07
7.06547e-07
6.93689e-07
6.78634e-07
6.57716e-07
6.28352e-07
5.89488e-07
5.51951e-07
5.26559e-07
5.16402e-07
5.18138e-07
5.37578e-07
5.61199e-07
5.77077e-07
5.85876e-07
5.88335e-07
5.86652e-07
5.90383e-07
6.0553e-07
6.3417e-07
6.67911e-07
6.95081e-07
7.18323e-07
7.42016e-07
7.7036e-07
8.08073e-07
8.43916e-07
8.75738e-07
8.99978e-07
9.12104e-07
9.15932e-07
9.14877e-07
9.12482e-07
9.10386e-07
9.06288e-07
8.98766e-07
8.92468e-07
8.87748e-07
8.82662e-07
8.73002e-07
8.53804e-07
8.31911e-07
8.12545e-07
7.92806e-07
7.67958e-07
7.31732e-07
6.84497e-07
6.3953e-07
5.97443e-07
5.57599e-07
5.19051e-07
4.80745e-07
4.41102e-07
3.96871e-07
3.51044e-07
3.07524e-07
2.69332e-07
2.33789e-07
1.98879e-07
1.65961e-07
1.37528e-07
1.15178e-07
9.76543e-08
8.34779e-08
7.1655e-08
6.24255e-08
5.62153e-08
5.18913e-08
4.65655e-08
4.15321e-08
3.83025e-08
3.80132e-08
3.96976e-08
4.20643e-08
4.44517e-08
4.61893e-08
4.74808e-08
4.951e-08
5.37159e-08
6.15294e-08
7.24877e-08
8.33014e-08
9.09416e-08
9.86697e-08
1.09862e-07
1.25884e-07
1.4567e-07
1.66465e-07
1.87917e-07
2.0955e-07
2.29421e-07
2.46094e-07
2.60135e-07
2.73211e-07
2.86964e-07
3.01417e-07
3.07553e-07
3.07768e-07
3.05922e-07
3.0586e-07
3.05544e-07
3.03495e-07
3.04507e-07
3.07167e-07
2.96781e-07
2.6365e-07
2.21248e-07
1.9607e-07
1.76803e-07
1.59384e-07
1.41464e-07
4.30484e-08
1.21897e-07
1.48195e-07
2.05145e-07
2.66383e-07
3.28456e-07
3.85517e-07
4.27134e-07
4.45528e-07
4.41233e-07
4.30151e-07
4.18346e-07
4.03982e-07
3.83825e-07
3.58255e-07
3.31109e-07
3.07864e-07
2.95085e-07
2.93502e-07
3.06786e-07
3.31748e-07
3.61934e-07
3.97381e-07
4.38947e-07
4.91621e-07
5.60421e-07
6.43982e-07
7.33905e-07
8.21833e-07
9.09352e-07
1.00936e-06
1.11141e-06
1.19704e-06
1.25745e-06
1.28747e-06
1.29289e-06
1.28531e-06
1.27591e-06
1.26267e-06
1.24176e-06
1.22022e-06
1.19964e-06
1.18407e-06
1.17436e-06
1.16837e-06
1.16542e-06
1.16654e-06
1.17035e-06
1.1757e-06
1.18066e-06
1.18841e-06
1.1989e-06
1.2103e-06
1.22293e-06
1.23792e-06
1.2523e-06
1.26085e-06
1.26204e-06
1.25553e-06
1.24704e-06
1.23963e-06
1.23851e-06
1.23841e-06
1.23917e-06
1.24531e-06
1.26174e-06
1.27736e-06
1.28413e-06
1.27861e-06
1.25949e-06
1.24581e-06
1.23932e-06
1.23576e-06
1.23438e-06
1.23546e-06
1.23922e-06
1.24507e-06
1.24924e-06
1.25173e-06
1.25412e-06
1.25595e-06
1.25986e-06
1.26752e-06
1.28015e-06
1.30626e-06
1.3354e-06
1.34583e-06
1.33366e-06
1.31914e-06
1.3146e-06
1.3142e-06
1.31947e-06
1.33984e-06
1.36332e-06
1.37401e-06
1.37452e-06
1.37216e-06
1.37607e-06
1.39399e-06
1.41278e-06
1.41978e-06
1.41788e-06
1.41718e-06
1.42372e-06
1.43731e-06
1.44967e-06
1.45842e-06
1.46612e-06
1.47838e-06
1.50015e-06
1.53252e-06
1.55386e-06
1.55847e-06
1.54484e-06
1.52949e-06
1.52381e-06
1.52334e-06
1.52667e-06
1.53317e-06
1.53671e-06
1.53627e-06
1.53115e-06
1.52518e-06
1.52259e-06
1.52482e-06
1.54149e-06
1.58129e-06
1.61531e-06
1.62983e-06
1.62674e-06
1.61223e-06
1.60357e-06
1.59861e-06
1.59446e-06
1.58675e-06
1.5772e-06
1.57131e-06
1.56905e-06
1.56979e-06
1.57269e-06
1.57867e-06
1.58673e-06
1.59608e-06
1.60804e-06
1.62584e-06
1.65362e-06
1.67982e-06
1.69551e-06
1.7003e-06
1.6946e-06
1.6768e-06
1.65992e-06
1.6471e-06
1.63597e-06
1.6231e-06
1.60884e-06
1.59472e-06
1.57958e-06
1.56311e-06
1.54683e-06
1.52972e-06
1.51481e-06
1.5037e-06
1.49399e-06
1.47973e-06
1.45393e-06
1.4193e-06
1.37724e-06
1.32579e-06
1.27297e-06
1.22474e-06
1.18188e-06
1.14257e-06
1.10381e-06
1.06129e-06
1.01123e-06
9.53648e-07
8.98647e-07
8.51368e-07
8.13604e-07
7.8414e-07
7.58486e-07
7.31502e-07
7.00379e-07
6.6619e-07
6.31964e-07
5.98432e-07
5.66768e-07
5.38181e-07
5.13604e-07
4.92968e-07
4.73811e-07
4.5385e-07
4.31922e-07
4.06469e-07
3.8124e-07
3.59629e-07
3.41757e-07
3.25962e-07
3.10141e-07
2.91974e-07
2.73698e-07
2.59402e-07
2.50695e-07
2.4654e-07
2.4314e-07
2.37508e-07
2.28016e-07
2.16592e-07
2.05841e-07
1.96051e-07
1.87375e-07
1.78598e-07
1.67192e-07
1.54052e-07
1.4395e-07
1.37316e-07
1.33047e-07
1.28862e-07
1.24582e-07
1.22317e-07
1.19594e-07
1.15485e-07
1.07719e-07
1.03634e-07
1.03344e-07
1.07432e-07
1.12043e-07
1.15513e-07
1.16999e-07
1.17315e-07
1.17715e-07
1.1885e-07
1.19073e-07
1.18529e-07
1.18908e-07
1.21652e-07
1.28923e-07
1.44001e-07
1.66645e-07
1.93516e-07
2.22266e-07
2.46086e-07
2.68399e-07
3.0178e-07
3.52327e-07
4.14932e-07
4.74279e-07
5.2499e-07
5.68037e-07
6.0423e-07
6.27964e-07
6.3504e-07
6.16586e-07
5.76451e-07
5.30086e-07
4.83014e-07
4.3243e-07
3.79119e-07
3.25428e-07
2.74608e-07
2.29142e-07
1.89202e-07
1.54874e-07
1.23354e-07
9.4849e-08
7.31019e-08
5.93161e-08
5.12166e-08
4.38887e-08
3.72676e-08
3.24159e-08
2.89016e-08
2.84149e-08
3.31465e-08
4.34812e-08
5.65452e-08
6.99655e-08
7.68988e-08
7.55728e-08
7.16694e-08
6.78968e-08
6.70954e-08
6.89786e-08
7.30828e-08
7.74798e-08
8.03301e-08
8.33944e-08
8.80049e-08
9.41266e-08
9.74405e-08
9.61786e-08
9.40451e-08
9.26616e-08
9.47479e-08
1.01106e-07
1.08814e-07
1.11583e-07
1.06946e-07
9.84181e-08
8.74172e-08
7.48181e-08
6.08586e-08
4.55071e-08
5.71455e-08
7.47065e-08
9.05003e-08
9.82013e-08
9.6048e-08
8.74027e-08
6.50581e-08
5.56843e-08
7.02199e-08
9.89464e-08
1.25314e-07
1.37485e-07
1.34796e-07
1.20793e-07
9.78747e-08
1.05756e-07
1.6067e-07
2.37498e-07
2.93626e-07
3.34515e-07
3.73539e-07
4.17515e-07
4.65737e-07
5.06325e-07
5.31394e-07
5.42064e-07
5.36924e-07
5.22861e-07
5.08067e-07
4.96384e-07
4.89948e-07
4.90136e-07
4.96317e-07
5.0274e-07
5.07267e-07
5.1022e-07
5.13949e-07
5.17941e-07
5.21631e-07
5.26174e-07
5.29997e-07
5.32258e-07
5.34446e-07
5.40145e-07
5.48967e-07
5.61204e-07
5.74154e-07
5.83325e-07
5.86721e-07
5.8512e-07
5.78274e-07
5.71689e-07
5.65962e-07
5.59693e-07
5.50321e-07
5.38176e-07
5.26572e-07
5.20249e-07
5.20315e-07
5.25644e-07
5.32454e-07
5.37076e-07
5.37937e-07
5.33416e-07
5.29817e-07
5.30837e-07
5.3654e-07
5.46335e-07
5.58898e-07
5.71333e-07
5.82604e-07
5.90674e-07
5.93565e-07
5.91054e-07
5.81451e-07
5.67918e-07
5.55913e-07
5.46431e-07
5.38008e-07
5.29368e-07
5.19141e-07
5.0998e-07
5.03582e-07
4.99334e-07
4.96604e-07
4.9458e-07
4.91859e-07
4.86999e-07
4.79247e-07
4.69102e-07
4.57164e-07
4.44195e-07
4.30356e-07
4.14361e-07
3.9765e-07
3.84914e-07
3.78855e-07
3.78837e-07
3.84081e-07
3.94237e-07
4.08558e-07
4.27474e-07
4.46679e-07
4.59801e-07
4.65992e-07
4.70308e-07
4.80877e-07
5.0366e-07
5.32663e-07
5.5446e-07
5.67613e-07
5.7335e-07
5.72871e-07
5.64593e-07
5.48954e-07
5.32769e-07
5.19978e-07
5.1281e-07
5.09331e-07
5.04552e-07
4.92479e-07
4.73475e-07
4.54525e-07
4.42386e-07
4.39013e-07
4.45147e-07
4.65453e-07
5.02822e-07
5.60514e-07
6.16855e-07
6.49662e-07
6.59024e-07
6.53845e-07
6.32388e-07
6.05172e-07
5.84658e-07
5.68878e-07
5.53916e-07
5.35659e-07
5.06756e-07
4.61676e-07
4.06636e-07
3.58545e-07
3.25144e-07
3.10418e-07
3.10485e-07
3.23629e-07
3.42244e-07
3.55226e-07
3.59723e-07
3.56028e-07
3.37697e-07
3.0889e-07
2.7407e-07
2.43014e-07
2.1945e-07
2.0545e-07
1.99917e-07
1.99368e-07
2.02262e-07
2.01674e-07
1.98414e-07
1.91092e-07
1.7824e-07
1.66081e-07
1.58109e-07
1.53943e-07
1.50687e-07
1.44508e-07
1.35337e-07
1.23149e-07
1.12897e-07
1.07828e-07
1.11426e-07
1.45936e-07
2.11052e-07
2.88253e-07
3.46957e-07
3.82605e-07
3.9648e-07
3.98099e-07
3.84415e-07
3.60612e-07
3.31493e-07
3.07564e-07
2.9526e-07
2.93471e-07
3.04872e-07
3.47349e-07
4.25279e-07
4.80145e-07
5.02914e-07
5.02687e-07
4.72829e-07
4.06059e-07
3.44929e-07
2.94718e-07
2.64034e-07
2.54183e-07
2.90472e-07
3.59119e-07
4.02276e-07
4.143e-07
3.90186e-07
2.91986e-07
1.98097e-07
1.2864e-07
9.67505e-08
1.10025e-07
1.51108e-07
1.99396e-07
2.3324e-07
2.46511e-07
2.08813e-07
1.70558e-07
1.42283e-07
1.27683e-07
1.24872e-07
1.34783e-07
1.42786e-07
1.4693e-07
1.39985e-07
1.22065e-07
9.5029e-08
6.97255e-08
5.02241e-08
3.66957e-08
2.7179e-08
1.75009e-08
1.79106e-08
3.55618e-08
7.19859e-08
1.10305e-07
1.27011e-07
1.10889e-07
7.90101e-08
4.8925e-08
6.03545e-08
4.36836e-08
2.03128e-08
5.99733e-08
1.34459e-07
1.62545e-07
1.63334e-07
1.06411e-07
6.16352e-08
3.07433e-08
1.59923e-08
2.24301e-08
1.64409e-07
2.49931e-07
2.68491e-07
2.39168e-07
1.37623e-07
5.85908e-08
1.7227e-08
6.45064e-08
2.69452e-07
4.01335e-07
4.43363e-07
3.85682e-07
2.89201e-07
1.94797e-07
1.23454e-07
1.03491e-07
1.55297e-07
1.95698e-07
2.03437e-07
1.8665e-07
1.52755e-07
1.20795e-07
1.01727e-07
1.05372e-07
1.32386e-07
1.58012e-07
1.62883e-07
1.43488e-07
1.28193e-07
1.25791e-07
1.36306e-07
1.63184e-07
2.11862e-07
2.69579e-07
3.17716e-07
3.47064e-07
3.6555e-07
3.8462e-07
4.10918e-07
4.36043e-07
4.51578e-07
4.53405e-07
4.45908e-07
4.38609e-07
4.44192e-07
4.6198e-07
4.88967e-07
5.10745e-07
5.17833e-07
5.09095e-07
4.88558e-07
4.61932e-07
4.41311e-07
4.29481e-07
4.25001e-07
4.24052e-07
4.2252e-07
4.19124e-07
4.17308e-07
4.17995e-07
4.22057e-07
4.33524e-07
4.49659e-07
4.58877e-07
4.60345e-07
4.55465e-07
4.47968e-07
4.35984e-07
4.22939e-07
4.02997e-07
3.82358e-07
3.65932e-07
3.57361e-07
3.55199e-07
3.58153e-07
3.67363e-07
3.72305e-07
3.64177e-07
3.42416e-07
3.17434e-07
3.01663e-07
2.93583e-07
2.90216e-07
2.87217e-07
2.75412e-07
2.56311e-07
2.42357e-07
2.31814e-07
2.27999e-07
2.36686e-07
2.53312e-07
2.55259e-07
2.37797e-07
2.23902e-07
2.21722e-07
2.43167e-07
2.82239e-07
3.0322e-07
3.06323e-07
2.88626e-07
2.43544e-07
2.12616e-07
1.90893e-07
1.73018e-07
1.61736e-07
1.66228e-07
2.34612e-07
2.83871e-07
2.90575e-07
2.75003e-07
2.91436e-07
3.33321e-07
3.58461e-07
3.64507e-07
3.50682e-07
3.2484e-07
3.10596e-07
3.33362e-07
3.83726e-07
4.08504e-07
4.12837e-07
4.0967e-07
4.31289e-07
4.82775e-07
4.9986e-07
4.93004e-07
4.77502e-07
4.73566e-07
5.02052e-07
5.55523e-07
5.79622e-07
5.7596e-07
5.16509e-07
4.63127e-07
4.42808e-07
4.50484e-07
4.88255e-07
5.01559e-07
4.75609e-07
4.47677e-07
4.43956e-07
4.89352e-07
5.93531e-07
6.64064e-07
6.75866e-07
6.23883e-07
5.77238e-07
5.61979e-07
5.61301e-07
5.63328e-07
5.50225e-07
5.25767e-07
5.21156e-07
5.58473e-07
5.91752e-07
5.78804e-07
5.06675e-07
4.67855e-07
4.49481e-07
4.39811e-07
4.39005e-07
4.59057e-07
4.71121e-07
4.73403e-07
4.71513e-07
4.64271e-07
4.47375e-07
4.22261e-07
4.06874e-07
4.03502e-07
4.1485e-07
4.19314e-07
4.02802e-07
3.88797e-07
3.88577e-07
3.97785e-07
3.68679e-07
2.48328e-07
1.6801e-07
1.53844e-07
3.1518e-07
4.10258e-07
3.97275e-07
4.17306e-07
7.13628e-07
7.61434e-07
5.87939e-07
4.23816e-07
3.37802e-07
4.13834e-07
7.34832e-07
7.49439e-07
4.40491e-07
2.95141e-07
2.19858e-07
2.36966e-07
4.37976e-07
4.738e-07
3.9297e-07
3.79005e-07
3.72885e-07
3.25425e-07
2.55233e-07
1.89368e-07
1.10668e-07
2.93625e-07
3.59242e-07
2.97651e-07
2.21825e-07
1.61037e-07
1.28312e-07
2.30005e-07
3.04918e-07
3.28366e-07
2.86714e-07
2.35627e-07
1.50409e-07
8.68988e-08
5.1868e-08
5.3169e-08
1.24911e-07
1.97597e-07
2.44502e-07
2.76044e-07
2.97411e-07
3.06767e-07
3.08612e-07
3.07445e-07
3.09976e-07
3.24922e-07
3.39828e-07
3.42899e-07
3.00546e-07
2.69911e-07
2.6005e-07
2.66454e-07
2.0533e-07
1.77954e-07
2.10657e-07
2.63822e-07
2.8647e-07
3.013e-07
3.20184e-07
3.30644e-07
3.32028e-07
3.25728e-07
3.14743e-07
3.06692e-07
2.9984e-07
2.74569e-07
2.38668e-07
2.03615e-07
1.62767e-07
1.21699e-07
9.01928e-08
8.04711e-08
1.01341e-07
1.09174e-07
1.16648e-07
1.21469e-07
1.13021e-07
1.04464e-07
1.01197e-07
1.11679e-07
1.15839e-07
1.0669e-07
1.042e-07
1.08892e-07
1.1066e-07
1.09385e-07
1.0664e-07
1.05544e-07
1.07071e-07
9.74122e-08
8.57172e-08
1.0337e-07
1.33504e-07
1.4802e-07
1.44153e-07
1.48815e-07
1.58307e-07
1.54489e-07
1.4085e-07
1.33833e-07
1.15191e-07
1.02195e-07