/*--------------------------------*- C++ -*----------------------------------*\
| =========                 |                                                 |
| \\      /  F ield         | OpenFOAM: The Open Source CFD Toolbox           |
|  \\    /   O peration     | Version:  v1812                                 |
|   \\  /    A nd           | Web:      www.OpenFOAM.com                      |
|    \\/     M anipulation  |                                                 |
\*---------------------------------------------------------------------------*/
FoamFile
{
    version     2.0;
    format      ascii;
    class       volScalarField;
    location    "120";
    object      omega;
}
// * * * * * * * * * * * * * * * * * * * * * * * * * * * * * * * * * * * * * //

dimensions      [0 0 -1 0 0 0 0];


internalField   nonuniform List<scalar> 
212248
(
558.399
557.985
557.495
557.062
556.701
556.415
556.207
556.081
556.041
556.101
556.285
556.63
557.197
558.07
559.169
560.388
561.727
563.183
564.753
566.432
568.216
570.101
572.081
574.151
576.307
578.542
580.853
583.233
585.678
588.183
590.741
593.349
596
598.691
601.416
604.17
606.949
609.748
612.562
615.388
618.221
621.057
623.891
626.721
629.541
632.349
635.14
637.912
640.66
643.382
646.074
648.733
651.356
653.941
656.484
658.983
661.435
663.837
666.187
668.483
670.722
672.902
675.021
677.077
679.068
680.991
682.846
684.63
686.342
687.979
689.54
691.024
692.43
693.754
694.998
696.158
697.234
698.224
699.128
699.944
700.672
701.31
701.857
702.313
702.676
702.945
703.12
703.199
703.186
703.075
702.863
702.551
702.143
701.641
701.044
700.352
699.564
698.683
697.707
696.637
695.474
694.218
692.87
691.43
689.898
688.277
686.566
684.766
682.879
680.906
678.847
676.705
674.48
672.175
669.791
667.329
664.792
662.183
659.502
656.754
653.94
651.064
648.129
645.139
642.097
639.008
635.876
632.708
629.507
626.28
623.033
619.774
616.51
613.248
609.997
606.765
603.562
600.397
597.279
594.22
591.229
588.315
585.49
582.763
580.142
577.638
575.256
573.006
570.893
568.923
567.098
565.421
563.895
562.517
561.287
560.2
559.253
558.439
557.751
557.183
556.724
556.369
556.112
555.948
555.879
555.912
556.067
556.377
556.895
557.699
558.681
559.758
560.923
562.172
563.496
564.891
566.349
567.865
569.433
571.048
572.705
574.398
576.122
577.874
579.649
581.443
583.252
585.072
586.901
588.736
590.572
592.408
594.241
596.068
597.888
599.699
601.498
603.284
605.056
606.811
608.549
610.268
611.967
613.646
615.303
616.937
618.548
620.135
621.697
623.234
624.746
626.232
627.691
629.124
630.529
631.908
633.259
634.582
635.878
637.147
638.387
639.6
640.785
641.942
643.071
644.173
645.247
646.293
647.312
648.304
649.268
650.206
651.116
651.999
652.856
653.686
654.49
655.267
656.018
656.743
657.443
658.116
658.764
659.387
659.984
660.556
661.103
661.625
662.123
662.595
663.043
663.467
663.866
664.24
664.591
664.917
665.219
665.497
665.751
665.981
666.186
666.368
666.526
666.659
666.768
666.853
666.914
666.95
666.963
666.95
666.912
666.85
666.764
666.653
666.516
666.355
666.17
665.961
665.728
665.469
665.184
664.871
664.532
664.166
663.775
663.357
662.912
662.44
661.941
661.415
660.861
660.279
659.67
659.032
658.365
657.67
656.945
656.192
655.409
654.597
653.755
652.883
651.981
651.049
650.087
649.098
648.069
647.006
645.807
644.868
643.674
642.51
641.303
640.074
638.814
637.528
636.214
634.875
633.511
632.124
630.716
629.287
627.839
626.376
624.898
623.41
621.913
620.411
618.908
617.406
615.909
614.423
612.95
611.496
610.065
608.662
607.291
605.958
604.666
603.419
602.223
601.081
599.996
598.971
598.008
597.109
596.277
595.51
594.809
594.171
593.593
593.072
592.603
592.18
591.797
591.446
591.119
590.808
590.505
590.205
589.898
589.575
589.23
588.854
588.443
587.991
587.495
586.953
586.362
585.719
585.025
584.279
583.48
582.632
581.738
580.802
579.83
578.826
577.794
576.737
575.664
574.581
573.496
572.414
571.343
570.29
569.26
568.255
567.284
566.354
565.465
564.62
563.821
563.074
562.379
561.736
561.145
560.606
560.12
559.689
559.312
558.989
558.721
558.515
558.379
558.323
558.363
558.525
558.853
559.408
560.267
561.278
562.37
563.544
564.794
566.121
567.521
568.991
570.529
572.13
573.792
575.511
577.283
579.105
580.973
582.882
584.829
586.809
588.818
590.853
592.909
594.981
597.067
599.161
601.259
603.359
605.454
607.541
609.619
611.683
613.729
615.754
617.759
619.74
621.692
623.614
625.507
627.369
629.196
630.985
632.74
634.457
636.131
637.758
639.341
640.876
642.358
643.783
645.149
646.457
647.703
648.893
649.997
651.04
651.9
652.751
653.277
653.557
653.131
651.148
652.978
656.327
659.153
660.1
660.652
661.267
662.069
663.038
663.855
664.391
664.703
664.855
664.905
664.903
664.875
664.823
664.727
664.567
664.335
664.031
663.658
663.214
662.701
662.121
661.475
660.764
659.987
659.146
658.242
657.276
656.249
655.162
654.017
652.816
651.559
650.25
648.889
647.479
646.021
644.517
642.969
641.379
639.748
638.079
636.373
634.632
632.857
631.053
629.222
627.364
625.482
623.578
621.656
619.717
617.762
615.796
613.821
611.837
609.847
607.857
605.869
603.883
601.902
599.931
597.973
596.029
594.1
592.192
590.309
588.454
586.628
584.834
583.079
581.365
579.695
578.07
576.494
574.971
573.505
572.096
570.748
569.461
568.24
567.085
565.998
564.977
564.024
563.14
562.324
561.573
560.885
560.26
559.695
559.187
558.734
558.331
557.976
557.668
557.402
557.177
556.991
556.844
556.736
556.669
556.645
556.672
556.759
556.919
557.173
557.55
558.027
558.535
559.071
559.635
560.223
560.835
561.467
562.118
562.786
563.471
564.169
564.878
565.596
566.324
567.061
567.802
568.547
569.295
570.045
570.796
571.546
572.295
573.041
573.783
574.52
575.252
575.977
576.695
577.405
578.105
578.797
579.479
580.151
580.811
581.461
582.101
582.73
583.346
583.949
584.54
585.12
585.687
586.238
586.775
587.3
587.811
588.308
588.789
589.256
589.712
590.154
590.582
590.997
591.399
591.788
592.165
592.53
592.883
593.224
593.555
593.877
594.189
594.492
594.787
595.075
595.355
595.627
595.894
596.154
596.41
596.662
596.909
597.151
597.389
597.625
597.857
598.087
598.314
598.538
598.76
598.982
599.202
599.419
599.634
599.849
600.068
600.286
600.501
600.714
600.928
601.15
601.371
601.59
601.808
602.03
602.259
602.487
602.713
602.941
603.173
603.411
603.647
603.883
604.12
604.365
604.609
604.85
605.091
605.338
605.585
605.828
606.07
606.312
606.553
606.79
607.022
607.251
607.477
607.698
607.91
608.114
608.31
608.499
608.677
608.841
608.991
609.13
609.255
609.362
609.451
609.521
609.572
609.603
609.611
609.594
609.552
609.486
609.392
609.27
609.119
608.938
608.73
608.492
608.221
607.917
607.582
607.214
606.815
606.38
605.909
605.407
604.87
604.297
603.691
603.05
602.375
601.666
600.922
600.145
599.333
598.487
597.608
596.697
595.753
594.777
593.773
592.739
591.677
590.589
589.476
588.343
587.187
586.014
584.826
583.625
582.415
581.2
579.981
578.764
577.551
576.347
575.155
573.982
572.831
571.707
570.615
569.558
568.54
567.564
566.634
565.753
564.923
564.147
563.427
562.766
562.164
561.624
561.15
560.747
560.42
560.182
560.049
560.048
560.221
560.632
561.382
562.585
563.996
565.542
567.222
569.034
570.976
573.045
575.236
577.544
579.967
582.499
585.133
587.863
590.683
593.59
596.574
599.63
602.753
605.936
609.173
612.456
615.784
619.149
622.541
625.959
629.399
632.849
636.305
639.764
643.219
646.663
650.092
653.502
656.885
660.239
663.56
666.839
670.071
673.255
676.387
679.456
682.461
685.4
688.268
691.055
693.757
696.373
698.901
701.333
703.663
705.894
708.022
710.041
711.947
713.741
715.424
716.99
718.436
719.76
720.96
722.034
722.98
723.799
724.489
725.055
725.496
725.811
725.999
726.061
726.005
725.819
725.505
725.072
724.524
723.864
723.091
722.203
721.202
720.091
718.88
717.569
716.155
714.629
712.989
711.24
709.39
707.442
705.395
703.246
700.994
698.646
696.204
693.668
691.034
688.3
685.473
682.558
679.559
676.474
673.304
670.053
666.723
663.321
659.852
656.321
652.732
649.088
645.396
641.662
637.895
634.097
630.279
626.452
622.629
618.831
615.061
611.331
607.66
604.058
600.539
597.118
593.809
590.625
587.574
584.67
581.921
579.329
576.9
574.637
572.541
570.61
568.845
567.244
565.798
564.498
563.34
562.317
561.418
560.633
559.956
559.377
558.89
558.488
558.165
557.919
557.749
557.659
557.654
557.746
557.953
558.307
558.846
559.465
560.105
560.764
561.434
562.108
562.781
563.449
564.116
564.777
565.425
566.061
566.684
567.296
567.896
568.473
569.027
569.568
570.095
570.613
571.122
571.608
572.072
572.514
572.936
573.341
573.727
574.104
574.468
574.813
575.141
575.452
575.749
576.032
576.3
576.551
576.788
577.014
577.229
577.429
577.614
577.784
577.94
578.086
578.22
578.343
578.457
578.565
578.668
578.761
578.848
578.933
579.013
579.088
579.161
579.237
579.313
579.388
579.463
579.541
579.626
579.721
579.819
579.923
580.041
580.169
580.303
580.439
580.585
580.749
580.927
581.114
581.307
581.51
581.734
581.97
582.214
582.473
582.739
583.016
583.305
583.612
583.944
584.289
584.639
584.999
585.375
585.763
586.162
586.559
586.959
587.387
587.833
588.272
588.709
589.155
589.613
590.074
590.537
590.998
591.468
591.934
592.406
592.876
593.347
593.818
594.283
594.745
595.205
595.66
596.107
596.549
596.987
597.421
597.853
598.278
598.686
599.076
599.453
599.82
600.179
600.531
600.88
601.222
601.556
601.88
602.197
602.507
602.81
603.107
603.394
603.671
603.937
604.194
604.438
604.667
604.882
605.082
605.27
605.448
605.61
605.758
605.892
606.009
606.11
606.188
606.239
606.265
606.271
606.258
606.226
606.172
606.094
605.995
605.858
605.697
605.515
605.305
605.071
604.818
604.539
604.234
603.909
603.558
603.18
602.78
602.355
601.902
601.421
600.918
600.391
599.844
599.282
598.705
598.11
597.498
596.875
596.243
595.588
594.913
594.231
593.542
592.837
592.111
591.375
590.63
589.865
589.083
588.295
587.501
586.698
585.881
585.047
584.206
583.361
582.515
581.662
580.793
579.918
579.046
578.162
577.267
576.386
575.52
574.663
573.811
572.968
572.138
571.321
570.527
569.763
569.034
568.341
567.681
567.057
566.478
565.95
565.483
565.086
564.756
564.501
564.339
564.294
564.38
564.633
565.105
565.866
567.021
568.714
571.008
573.547
576.291
579.263
582.452
585.838
589.412
593.182
597.135
601.253
605.54
609.988
614.589
619.337
624.219
629.215
634.315
639.512
644.797
650.154
655.574
661.044
666.545
672.065
677.594
683.123
688.649
694.156
699.631
705.062
710.436
715.751
721
726.175
731.265
736.26
741.15
745.921
750.56
755.054
759.405
763.636
767.77
771.848
775.935
780.164
784.764
789.797
794.597
799.048
803.171
807.012
810.603
813.926
816.919
819.532
821.771
823.655
825.19
826.364
827.147
827.504
827.458
826.99
826.07
824.714
822.906
820.63
817.878
814.642
810.916
806.695
801.98
796.778
791.11
785.028
778.612
771.964
765.211
758.53
752.126
746.194
740.278
734.136
727.771
721.207
714.465
707.556
700.499
693.32
686.039
678.696
671.308
663.907
656.561
649.286
642.118
635.099
628.264
621.655
615.3
609.239
603.502
598.11
593.087
588.444
584.181
580.299
576.793
573.653
570.864
568.41
566.267
564.413
562.827
561.489
560.373
559.457
558.721
558.145
557.717
557.433
557.297
557.332
557.585
558.149
558.966
559.84
560.762
561.722
562.708
563.715
564.742
565.794
566.866
567.951
569.047
570.154
571.268
572.385
573.505
574.633
575.753
576.845
577.916
578.978
580.028
581.059
582.076
583.081
584.074
585.049
585.996
586.922
587.836
588.733
589.6
590.427
591.215
591.967
592.684
593.364
594.015
594.645
595.264
595.874
596.48
597.079
597.671
598.257
598.842
599.426
600.002
600.57
601.126
601.644
602.107
602.517
602.887
603.238
603.574
603.892
604.198
604.503
604.794
605.104
605.418
605.726
606.004
606.219
606.344
606.37
606.29
606.081
605.791
605.476
605.136
604.741
604.282
603.753
603.167
602.484
601.704
600.855
599.957
599.053
598.135
597.204
596.255
595.284
594.277
593.233
592.148
591.001
589.78
588.502
587.177
585.844
584.569
583.374
582.241
581.147
580.095
579.106
578.204
577.385
576.607
575.833
575.054
574.268
573.46
572.615
571.776
571.015
570.372
569.877
569.564
569.454
569.527
569.786
570.174
570.599
571.044
571.48
571.907
572.346
572.792
573.278
573.895
574.682
575.679
576.929
578.422
579.924
581.248
582.401
583.555
584.789
586.184
587.84
589.829
592.223
594.812
597.179
599.292
601.242
603.105
604.839
606.287
607.425
608.357
609.142
609.713
610.146
610.369
610.361
609.83
609.348
609.27
609.991
611.216
611.736
611.703
610.858
609.849
609.368
609.291
609.979
611.931
614.315
616.693
618.934
621.076
623.255
625.408
627.073
628.274
629.295
630.399
632.064
634.06
635.645
636.932
638.119
639.609
641.763
644.481
647.27
649.709
651.891
653.743
654.982
655.508
655.553
655.11
654.121
652.828
651.361
649.816
648.443
647.328
646.565
646.134
645.718
644.72
643.083
640.818
637.051
631.316
625.261
620.008
615.384
611.363
608.211
606.254
605.159
604.198
603.074
601.517
599.338
596.462
593.702
591.886
591.208
591.364
592.772
594.415
595.528
596.169
596.348
596.224
596.544
597.728
599.874
602.369
604.315
605.994
607.753
609.879
612.722
615.449
617.932
619.851
620.799
621.064
620.898
620.667
620.496
620.183
619.613
619.134
618.771
618.382
617.648
616.197
614.605
613.247
611.814
609.947
607.141
603.516
600.135
597.015
594.082
591.26
588.467
585.59
582.397
579.107
576.023
573.38
570.898
568.431
566.059
564.016
562.439
561.219
560.235
559.416
558.79
558.449
558.252
557.879
557.456
557.144
557.097
557.236
557.432
557.598
557.697
557.756
557.893
558.188
558.768
559.675
560.585
561.118
561.573
562.204
563.22
564.589
566.048
567.559
569.091
570.492
571.667
572.658
573.586
574.575
575.718
576.224
576.186
575.949
575.896
575.869
575.721
575.813
576.15
575.588
573.186
569.994
568.106
566.74
565.526
564.283
563.179
562.922
564.777
568.78
573.111
577.576
581.824
584.92
586.238
585.755
584.839
583.962
582.922
581.478
579.658
577.716
576.042
575.129
575.031
575.992
577.78
579.945
582.503
585.518
589.355
594.395
600.568
607.278
613.903
620.596
628.489
636.68
643.525
648.31
650.519
650.649
649.869
649.079
648.022
646.364
644.663
643.044
641.826
641.075
640.613
640.389
640.482
640.788
641.215
641.608
642.219
643.042
643.937
644.936
646.17
647.376
648.081
648.098
647.531
646.842
646.244
646.141
646.118
646.174
646.705
648.139
649.527
650.117
649.646
647.933
646.711
646.167
645.881
645.771
645.865
646.172
646.638
646.968
647.154
647.329
647.463
647.765
648.368
649.378
651.604
654.172
655.034
653.825
652.49
652.111
652.077
652.507
654.252
656.267
657.148
657.093
656.794
657.088
658.618
660.201
660.758
660.444
660.35
660.881
662.002
663.012
663.71
664.307
665.297
667.203
670.049
671.88
672.193
670.835
669.459
668.978
668.94
669.231
669.805
670.113
670.042
669.586
669.093
668.881
669.062
670.517
674.017
676.969
678.178
677.753
676.371
675.605
675.196
674.863
674.166
673.356
672.869
672.682
672.742
672.979
673.463
674.114
674.878
675.861
677.404
679.851
682.164
683.523
683.929
683.356
681.69
680.166
679.079
678.161
677.104
675.935
674.779
673.539
672.189
670.854
669.457
668.269
667.456
666.779
665.694
663.625
660.832
657.377
653.132
648.836
644.999
641.632
638.611
635.628
632.329
628.415
623.91
619.663
616.059
613.202
611.034
609.165
607.142
604.744
602.142
599.59
597.11
594.778
592.679
590.913
589.489
588.164
586.734
585.136
583.219
581.327
579.741
578.454
577.345
576.222
574.915
573.604
572.595
572.059
571.857
571.63
571.148
570.379
569.552
568.793
568.133
567.597
567.013
566.196
565.195
564.45
563.982
563.684
563.416
563.261
563.278
563.109
562.663
561.968
561.649
561.625
561.923
562.243
562.474
562.572
562.593
562.621
562.747
562.883
562.91
562.93
562.986
563.418
564.467
566.15
568.272
570.351
571.858
573.273
575.613
579.228
583.746
588.052
591.75
594.99
597.897
599.815
600.366
598.944
595.87
592.389
588.905
585.182
581.267
577.34
573.676
570.461
567.721
565.443
563.256
561.171
559.561
558.56
558.005
557.508
557.108
556.868
556.619
556.528
556.78
557.481
558.396
559.448
560.071
559.943
559.535
559.172
559.105
559.237
559.549
559.952
560.168
560.339
560.594
561.01
561.287
561.175
560.997
560.879
561.022
561.477
562.116
562.446
562.104
561.384
560.523
559.653
558.816
557.833
558.539
559.647
560.729
561.266
561.119
560.52
558.971
558.315
559.32
561.346
563.239
564.129
563.957
562.984
561.366
561.85
565.654
571.066
575.055
577.976
580.778
583.975
587.519
590.513
592.354
593.13
592.703
591.616
590.511
589.659
589.193
589.211
589.661
590.128
590.455
590.669
590.979
591.344
591.671
592.016
592.261
592.334
592.441
592.85
593.496
594.399
595.377
596.07
596.32
596.175
595.653
595.176
594.805
594.389
593.712
592.797
591.885
591.389
591.386
591.774
592.284
592.635
592.701
592.358
592.079
592.147
592.56
593.275
594.194
595.113
596.001
596.676
596.936
596.759
595.999
594.914
593.986
593.283
592.667
592.036
591.291
590.623
590.158
589.852
589.652
589.499
589.299
588.946
588.383
587.645
586.778
585.84
584.854
583.717
582.506
581.558
581.115
581.11
581.484
582.214
583.274
584.7
586.134
587.093
587.491
587.738
588.485
590.142
592.264
593.865
594.836
595.293
595.308
594.731
593.588
592.366
591.376
590.83
590.574
590.227
589.348
587.965
586.586
585.702
585.454
585.895
587.364
590.086
594.315
598.474
600.898
601.592
601.212
599.628
597.618
596.105
594.94
593.839
592.5
590.389
587.115
583.151
579.706
577.316
576.254
576.234
577.159
578.492
579.43
579.75
579.469
578.155
576.099
573.622
571.42
569.754
568.765
568.373
568.334
568.54
568.517
568.316
567.808
566.872
566.01
565.449
565.164
564.945
564.516
563.869
563.011
562.291
561.934
562.229
564.904
569.606
574.829
578.841
581.385
582.413
582.623
581.713
580.025
577.941
576.205
575.225
575.02
575.822
578.854
584.472
588.456
590.11
590.093
587.921
583.098
578.764
575.274
573.162
572.524
575.127
579.998
582.927
583.696
581.954
574.927
568.35
563.572
561.372
562.284
565.143
568.606
571.04
571.979
569.231
566.422
564.357
563.316
563.119
563.814
564.373
564.667
564.244
563.09
561.233
559.409
557.962
557.02
556.385
555.764
556.039
557.108
559.466
562.144
563.352
562.253
560.058
557.979
558.78
557.602
556.74
559.104
563.837
565.803
565.933
561.955
558.771
556.62
555.592
556.364
566.917
572.362
573.49
571.353
564.143
558.584
555.668
558.934
573.339
582.802
585.848
581.67
574.748
568.057
563.051
561.648
565.264
568.108
568.657
567.478
565.109
562.869
561.526
561.787
563.759
565.694
566.085
564.705
563.481
563.203
563.92
565.809
569.273
573.422
576.869
578.948
580.204
581.539
583.434
585.301
586.486
586.627
586.019
585.453
585.852
587.156
589.211
590.891
591.323
590.576
589.066
587.13
585.635
584.776
584.451
584.381
584.27
584.024
583.891
583.94
584.301
585.326
586.608
587.286
587.259
586.728
586.12
585.25
584.313
582.878
581.39
580.202
579.581
579.45
579.857
580.69
581.051
580.246
578.528
576.716
575.592
575.026
574.797
574.598
573.77
572.412
571.407
570.651
570.466
571.42
572.763
572.856
571.445
570.391
570.058
571.473
574.232
575.73
575.963
574.708
571.505
569.314
567.778
566.516
565.72
566.092
571.156
574.754
575.089
573.771
574.888
577.871
579.698
580.138
579.125
577.252
576.233
577.865
581.502
583.295
583.58
583.343
584.904
588.645
589.889
589.39
588.26
587.973
590.045
593.961
595.738
595.477
591.116
587.216
585.739
586.293
589.038
590.01
588.123
586.092
585.822
589.115
596.754
601.995
602.888
599.04
595.59
594.464
594.412
594.562
593.607
591.812
591.467
594.191
596.651
595.717
590.429
587.59
586.253
585.548
585.481
586.93
587.807
587.973
587.839
587.316
586.093
584.277
583.164
582.919
583.75
584.097
582.913
581.889
581.846
582.51
580.462
571.894
566.167
565.15
576.546
583.434
582.737
584.466
606.427
610.123
597
584.853
578.647
584.119
607.922
609.208
586.079
575.468
570.102
571.281
585.703
588.345
582.287
581.24
580.788
577.375
572.37
567.728
562.247
575.133
579.832
575.384
570
565.722
563.437
570.573
575.904
577.589
574.619
571.004
565.034
560.672
558.353
558.558
563.613
568.803
572.164
574.401
575.86
576.473
576.583
576.494
576.674
577.786
578.942
579.246
576.272
574.207
573.632
574.101
569.762
567.898
570.308
574.767
577.161
579.035
580.924
581.599
581.028
580.325
579.544
579.371
579.316
577.572
574.802
571.946
568.879
566.011
564.187
564.059
565.824
567.019
567.875
568.902
569.064
569.343
569.778
570.74
571.501
571.265
571.692
572.711
573.924
575.183
576.291
577.03
577.755
577.899
579.212
584.777
592.849
596.42
593.947
591.06
591.222
591.215
590.199
590.111
592.998
599.613
604.464
604.245
601.419
600.274
600.058
601.868
606.929
612.258
614.347
615.216
618.42
627.723
635.534
641.042
644.066
648.711
662.242
667.442
95.9815
102.482
104.527
105.647
106.454
107.133
107.754
108.351
108.952
109.58
110.245
110.952
111.705
112.499
113.321
114.16
115.014
115.885
116.773
117.679
118.603
119.544
120.501
121.472
122.456
123.451
124.457
125.471
126.492
127.518
128.55
129.584
130.621
131.658
132.696
133.731
134.764
135.793
136.818
137.837
138.849
139.854
140.85
141.837
142.813
143.778
144.731
145.671
146.598
147.51
148.407
149.289
150.153
151
151.829
152.64
153.431
154.202
154.952
155.681
156.389
157.074
157.736
158.375
158.99
159.58
160.146
160.686
161.201
161.69
162.151
162.586
162.992
163.371
163.722
164.043
164.336
164.6
164.835
165.041
165.219
165.367
165.487
165.58
165.646
165.687
165.703
165.699
165.675
165.635
165.583
165.525
165.443
165.312
165.143
164.939
164.698
164.419
164.103
163.747
163.354
162.921
162.45
161.939
161.39
160.802
160.175
159.51
158.807
158.067
157.289
156.475
155.626
154.743
153.826
152.878
151.899
150.892
149.857
148.798
147.717
146.616
145.498
144.366
143.224
142.074
140.92
139.766
138.616
137.474
136.344
135.23
134.136
133.066
132.025
131.016
130.042
129.109
128.217
127.372
126.574
125.827
125.133
124.492
123.906
123.375
122.9
122.481
122.117
121.807
121.55
121.344
121.189
121.084
121.025
121.011
121.041
121.114
121.227
121.379
121.571
121.797
122.056
122.35
122.682
123.061
123.489
123.942
124.414
124.907
125.423
125.955
126.501
127.059
127.626
128.2
128.781
129.367
129.955
130.546
131.138
131.73
132.321
132.91
133.496
134.079
134.658
135.232
135.8
136.363
136.919
137.468
138.01
138.545
139.071
139.59
140.1
140.601
141.093
141.577
142.051
142.516
142.971
143.417
143.853
144.28
144.697
145.104
145.501
145.889
146.267
146.635
146.994
147.343
147.682
148.011
148.332
148.642
148.943
149.235
149.517
149.791
150.054
150.309
150.555
150.791
151.019
151.238
151.448
151.649
151.841
152.024
152.199
152.366
152.524
152.673
152.814
152.947
153.071
153.188
153.296
153.395
153.487
153.571
153.646
153.714
153.773
153.825
153.869
153.905
153.932
153.952
153.965
153.97
153.967
153.957
153.938
153.912
153.879
153.839
153.792
153.738
153.677
153.61
153.536
153.456
153.37
153.277
153.178
153.073
152.961
152.853
152.756
152.65
152.535
152.409
152.274
152.131
151.979
151.818
151.648
151.47
151.284
151.09
150.889
150.679
150.461
150.234
150
149.757
149.506
149.248
148.981
148.706
148.423
148.132
147.834
147.527
147.214
146.892
146.563
146.227
145.882
145.525
145.171
144.85
144.626
144.559
143.61
143.375
142.89
142.504
142.091
141.685
141.268
140.851
140.428
140.003
139.574
139.143
138.709
138.274
137.836
137.395
136.95
136.501
136.047
135.584
135.111
134.629
134.136
133.633
133.121
132.596
132.058
131.503
130.931
130.345
129.749
129.133
128.501
127.864
127.238
126.645
126.068
125.458
124.814
124.168
123.56
122.997
122.477
121.989
121.534
121.12
120.75
120.43
120.164
119.957
119.812
119.734
119.724
119.784
119.912
120.11
120.38
120.722
121.137
121.624
122.179
122.801
123.489
124.242
125.057
125.93
126.859
127.848
128.889
129.991
131.142
132.353
133.612
134.931
136.306
137.742
139.231
140.749
142.303
143.886
145.504
147.16
148.849
150.57
152.32
154.093
155.866
157.63
159.416
161.221
163.038
164.843
166.628
168.412
170.221
172.049
173.869
175.687
177.506
179.329
181.153
182.962
184.759
186.559
188.357
190.134
191.908
193.675
195.421
197.166
198.911
200.64
202.344
204.045
205.752
207.429
209.085
210.736
212.375
213.997
215.594
217.172
218.741
220.291
221.816
223.318
224.809
226.278
227.695
229.075
230.437
231.765
233.044
234.301
235.517
236.668
237.783
238.857
239.871
240.814
241.688
242.522
243.306
243.999
244.61
245.189
245.707
246.132
246.484
246.785
246.993
247.144
247.146
247.25
247.005
247.331
246.872
247.905
248.065
250.142
253.942
257.282
16.8589
24.472
28.5547
31.2292
33.0954
34.4629
35.5155
36.3641
37.0746
37.6955
38.2639
38.8066
39.3453
39.8927
40.4343
40.914
41.3256
41.6866
42.0155
42.3264
42.6283
42.9265
43.2239
43.5216
43.8201
44.1192
44.4188
44.7188
45.0189
45.3188
45.6185
45.9176
46.2158
46.5129
46.8088
47.1032
47.3958
47.6863
47.9747
48.2605
48.5437
48.8239
49.1009
49.3744
49.6442
49.9099
50.1715
50.4285
50.6809
50.9282
51.1702
51.4071
51.638
51.8624
52.0802
52.2915
52.4962
52.6943
52.8856
53.0698
53.2468
53.4162
53.5779
53.7316
53.877
54.0141
54.1427
54.2626
54.3736
54.4755
54.5681
54.6513
54.7251
54.7893
54.8437
54.8884
54.9231
54.9481
54.9633
54.9687
54.9647
54.9504
54.9262
54.8923
54.8488
54.7958
54.7334
54.6616
54.5806
54.4904
54.3913
54.2828
54.1629
54.0298
53.8848
53.7285
53.561
53.3824
53.1933
52.994
52.785
52.5669
52.3403
52.1057
51.8639
51.6154
51.3612
51.1019
50.8383
50.5714
50.302
50.0311
49.7596
49.4885
49.2187
48.951
48.6865
48.4261
48.1707
47.9213
47.6788
47.4439
47.2173
47
46.7927
46.5959
46.4104
46.2364
46.0744
45.925
45.7882
45.6645
45.5539
45.4565
45.3723
45.3013
45.2434
45.1984
45.1659
45.1458
45.1376
45.1408
45.1554
45.1809
45.2168
45.2626
45.3178
45.382
45.4546
45.535
45.6228
45.7175
45.8188
45.9261
46.039
46.1571
46.28
46.4073
46.5386
46.6734
46.8115
46.9525
47.0959
47.2416
47.3894
47.5393
47.6908
47.8415
47.9906
48.1383
48.2856
48.432
48.5774
48.7212
48.8635
49.0039
49.1424
49.2787
49.4128
49.5445
49.6737
49.8003
49.9242
50.0454
50.1637
50.2791
50.3916
50.5011
50.6075
50.7108
50.811
50.9081
51.0019
51.0926
51.1801
51.2644
51.3455
51.4233
51.4979
51.5693
51.6375
51.7024
51.7642
51.8227
51.8781
51.9302
51.9793
52.0251
52.0678
52.1074
52.1439
52.1772
52.2075
52.2347
52.2588
52.28
52.2982
52.3133
52.3255
52.3346
52.3407
52.344
52.3443
52.3416
52.336
52.3275
52.3159
52.3014
52.2839
52.2636
52.2405
52.2145
52.1855
52.1535
52.1185
52.0809
52.0404
51.997
51.9506
51.9014
51.8493
51.7944
51.7367
51.6761
51.6125
51.5459
51.4764
51.4039
51.3284
51.2499
51.1682
51.0835
50.9959
50.9058
50.813
50.7168
50.6173
50.5149
50.4097
50.3023
50.1924
50.0797
49.964
49.8456
49.7243
49.6001
49.4731
49.3432
49.2106
49.0752
48.9367
48.7963
48.6545
48.5098
48.3611
48.2092
48.0542
47.8954
47.7331
47.5674
47.3979
47.2253
47.0496
46.8709
46.6891
46.5043
46.3165
46.1258
45.9324
45.7362
45.5374
45.3362
45.1325
44.9266
44.7186
44.5087
44.2969
44.0835
43.8689
43.6536
43.4379
43.2217
43.0044
42.7863
42.5698
42.3569
42.1471
41.9345
41.6099
41.5198
41.2595
41.0511
40.8426
40.6373
40.435
40.2365
40.042
39.8521
39.6672
39.4879
39.3146
39.1477
38.9876
38.8346
38.6894
38.5523
38.4237
38.304
38.1939
38.0944
38.0062
37.9304
37.8682
37.8205
37.7892
37.7747
37.7812
37.8109
37.8657
37.9461
38.0566
38.2014
38.3841
38.6076
38.8741
39.1864
39.5487
39.9665
40.4438
40.9806
41.5781
42.2364
42.9535
43.7261
44.5535
45.4294
46.3468
47.3025
48.2859
49.299
50.3324
51.3718
52.4043
53.4264
54.4396
55.4473
56.4495
57.4415
58.4122
59.3524
60.2686
61.1742
62.0619
62.9123
63.7153
64.4547
65.1817
65.9003
66.6464
67.4676
68.3162
69.1195
69.9297
70.7414
71.5875
72.4282
73.248
74.0834
74.9358
75.805
76.6746
77.5422
78.4283
79.3295
80.2191
81.0984
81.9955
82.9174
83.8628
84.8129
85.7578
86.6931
87.6307
88.565
89.4814
90.3756
91.2608
92.1457
93.0143
93.8553
94.6751
95.485
96.2766
97.042
97.7927
98.5227
99.2246
99.9103
100.581
101.228
101.847
102.449
103.038
103.596
104.129
104.645
105.136
105.603
106.04
106.448
106.831
107.184
107.505
107.788
108.042
108.265
108.446
108.58
108.68
108.742
108.757
108.722
108.637
108.508
108.328
108.085
107.781
107.424
107.015
106.539
105.996
105.402
104.76
104.054
103.287
102.476
101.625
100.727
99.7805
98.7801
97.7394
96.6086
95.5752
94.3453
93.5119
92.0784
91.7748
91.1952
92.2123
93.823
3.07408
4.55481
5.87045
7.10908
8.2408
9.25208
10.1468
10.9427
11.6536
12.2985
12.915
13.5379
14.1975
14.9254
15.7236
16.4278
16.9217
17.2474
17.4621
17.6108
17.7232
17.817
17.9019
17.9829
18.0624
18.1414
18.2202
18.299
18.3776
18.4561
18.5345
18.6127
18.6907
18.7684
18.8458
18.9228
18.9994
19.0756
19.1513
19.2265
19.3013
19.3755
19.4491
19.522
19.594
19.665
19.7351
19.8042
19.8722
19.9392
20.0048
20.0694
20.1328
20.1943
20.2539
20.312
20.3689
20.4247
20.4795
20.5332
20.5857
20.6369
20.6867
20.735
20.782
20.8274
20.8715
20.9142
20.9555
20.9953
21.0336
21.0704
21.1059
21.1399
21.1727
21.2041
21.2343
21.2633
21.2911
21.3177
21.3432
21.3674
21.3907
21.4131
21.4346
21.4554
21.4754
21.4947
21.5134
21.5316
21.5493
21.5666
21.5829
21.5977
21.6111
21.6232
21.6342
21.644
21.6529
21.6609
21.6682
21.6748
21.681
21.6867
21.6921
21.6973
21.7024
21.7074
21.7125
21.7177
21.7232
21.729
21.7352
21.7419
21.7492
21.7569
21.7653
21.7742
21.7837
21.794
21.8048
21.8163
21.8285
21.8412
21.8546
21.8686
21.8832
21.8982
21.9136
21.9294
21.9456
21.962
21.9785
21.9952
22.0119
22.0286
22.0451
22.0614
22.0775
22.0931
22.1083
22.123
22.1371
22.1506
22.1634
22.1754
22.1867
22.197
22.2064
22.2148
22.2221
22.2284
22.2335
22.2375
22.2403
22.2419
22.2423
22.2413
22.239
22.2354
22.2304
22.2241
22.2164
22.2073
22.1969
22.1853
22.1725
22.158
22.1417
22.1238
22.1045
22.084
22.0621
22.039
22.0145
21.9887
21.9617
21.9334
21.9038
21.8731
21.8412
21.8081
21.7738
21.7384
21.7019
21.6643
21.6256
21.5859
21.5452
21.5035
21.4608
21.4171
21.3725
21.327
21.2806
21.2333
21.1852
21.1362
21.0865
21.0359
20.9845
20.9324
20.8796
20.826
20.7717
20.7167
20.6611
20.6049
20.548
20.4905
20.4323
20.3736
20.3142
20.2544
20.194
20.1331
20.0718
20.01
19.9476
19.8847
19.8214
19.7576
19.6935
19.6289
19.5639
19.4985
19.4326
19.3663
19.2997
19.2328
19.1656
19.0981
19.0302
18.962
18.8935
18.8249
18.756
18.6868
18.6174
18.5479
18.4782
18.4084
18.3385
18.2684
18.1981
18.1277
18.0572
17.9865
17.9158
17.8449
17.774
17.703
17.6322
17.5615
17.4908
17.4201
17.3494
17.2789
17.2087
17.1387
17.0691
16.9997
16.9305
16.8617
16.7932
16.7249
16.6571
16.5897
16.5227
16.4561
16.39
16.3245
16.2599
16.1959
16.1323
16.0692
16.0068
15.9451
15.8839
15.8231
15.7629
15.7033
15.6443
15.5861
15.5286
15.4718