/*--------------------------------*- C++ -*----------------------------------*\
| =========                 |                                                 |
| \\      /  F ield         | OpenFOAM: The Open Source CFD Toolbox           |
|  \\    /   O peration     | Version:  v1812                                 |
|   \\  /    A nd           | Web:      www.OpenFOAM.com                      |
|    \\/     M anipulation  |                                                 |
\*---------------------------------------------------------------------------*/
FoamFile
{
    version     2.0;
    format      ascii;
    class       volScalarField;
    location    "120";
    object      p;
}
// * * * * * * * * * * * * * * * * * * * * * * * * * * * * * * * * * * * * * //

dimensions      [1 -1 -2 0 0 0 0];


internalField   nonuniform List<scalar> 
212248
(
3389.32
3397.1
3404.86
3412.71
3420.67
3428.76
3437.02
3445.5
3454.21
3463.28
3472.95
3483.66
3496.71
3522.9
3551.9
3569.97
3585.51
3599.86
3613.53
3626.79
3639.78
3652.61
3665.33
3677.99
3690.61
3703.21
3715.8
3728.39
3741
3753.61
3766.24
3778.87
3791.52
3804.18
3816.85
3829.52
3842.18
3854.85
3867.51
3880.15
3892.77
3905.37
3917.94
3930.48
3942.97
3955.42
3967.82
3980.15
3992.42
4004.62
4016.74
4028.78
4040.72
4052.57
4064.31
4075.94
4087.45
4098.84
4110.11
4121.23
4132.21
4143.04
4153.71
4164.22
4174.55
4184.7
4194.66
4204.41
4213.93
4223.21
4232.24
4241.02
4249.53
4257.77
4265.75
4273.45
4280.88
4288.04
4294.92
4301.53
4307.87
4313.94
4319.73
4325.26
4330.52
4335.52
4340.26
4344.74
4348.97
4352.94
4356.67
4360.35
4364.15
4367.7
4370.82
4373.61
4376.12
4378.36
4380.32
4382.02
4383.47
4384.65
4385.57
4386.24
4386.66
4386.82
4386.72
4386.37
4385.77
4384.92
4383.83
4382.48
4380.9
4379.07
4376.99
4374.69
4372.14
4369.37
4366.36
4363.13
4359.68
4356
4352.11
4348.01
4343.7
4339.19
4334.48
4329.57
4324.47
4319.18
4313.71
4308.07
4302.25
4296.26
4290.12
4283.81
4277.36
4270.75
4264.01
4257.13
4250.12
4242.98
4235.72
4228.35
4220.87
4213.28
4205.6
4197.82
4189.96
4182.02
4173.99
4165.9
4157.74
4149.52
4141.25
4132.93
4124.56
4116.16
4107.72
4099.26
4090.77
4082.28
4073.78
4065.28
4056.8
4048.32
4039.81
4031.25
4022.63
4013.37
4004.25
3995.36
3986.62
3977.96
3969.37
3960.85
3952.39
3944
3935.67
3927.41
3919.21
3911.08
3903.02
3895.03
3887.11
3879.27
3871.51
3863.82
3856.21
3848.69
3841.24
3833.88
3826.61
3819.42
3812.33
3805.32
3798.4
3791.57
3784.84
3778.2
3771.66
3765.21
3758.86
3752.61
3746.45
3740.39
3734.43
3728.57
3722.81
3717.15
3711.59
3706.13
3700.76
3695.5
3690.34
3685.27
3680.3
3675.43
3670.66
3665.98
3661.4
3656.91
3652.52
3648.22
3644.02
3639.91
3635.89
3631.95
3628.11
3624.36
3620.7
3617.12
3613.63
3610.23
3606.91
3603.67
3600.52
3597.45
3594.46
3591.55
3588.72
3585.97
3583.3
3580.7
3578.18
3575.74
3573.37
3571.08
3568.85
3566.7
3564.63
3562.62
3560.68
3558.81
3557.02
3555.28
3553.62
3552.02
3550.49
3549.03
3547.63
3546.29
3545.02
3543.8
3542.66
3541.57
3540.55
3539.58
3538.68
3537.84
3537.06
3536.33
3535.66
3535.05
3534.5
3534.01
3533.58
3533.2
3532.88
3532.58
3532.33
3532.19
3532.12
3532.12
3532.18
3532.29
3532.47
3532.7
3533
3533.35
3533.76
3534.23
3534.76
3535.34
3535.99
3536.7
3537.46
3538.29
3539.18
3540.13
3541.14
3542.21
3543.34
3544.53
3545.79
3547.11
3548.5
3550
3551.4
3552.99
3554.63
3556.34
3558.12
3559.97
3561.88
3563.87
3565.92
3568.05
3570.24
3572.51
3574.86
3577.28
3579.77
3582.34
3584.98
3587.71
3590.51
3593.4
3596.37
3599.42
3602.55
3605.77
3609.08
3612.47
3615.95
3619.53
3623.19
3626.95
3630.8
3634.75
3638.79
3642.93
3647.17
3651.5
3655.94
3660.49
3665.14
3669.89
3674.74
3679.7
3684.76
3689.94
3695.22
3700.61
3706.1
3711.71
3717.43
3723.26
3729.2
3735.25
3741.4
3747.66
3754.04
3760.52
3767.11
3773.8
3780.6
3787.51
3794.52
3801.64
3808.85
3816.17
3823.59
3831.1
3838.71
3846.41
3854.2
3862.08
3870.05
3878.11
3886.24
3894.46
3902.75
3911.12
3919.56
3928.06
3936.63
3945.26
3953.95
3962.69
3971.48
3980.31
3989.2
3998.11
4007.06
4016.05
4025.06
4034.08
4043.12
4052.16
4061.21
4070.27
4079.31
4088.35
4097.37
4106.38
4115.36
4124.32
4133.23
4142.11
4150.95
4159.74
4168.47
4177.15
4185.76
4194.3
4202.77
4211.16
4219.47
4227.69
4235.81
4243.84
4251.77
4259.59
4267.29
4274.88
4282.35
4289.7
4296.92
4304
4310.95
4317.75
4324.41
4330.93
4337.29
4343.5
4349.55
4355.43
4361.16
4366.71
4372.09
4377.3
4382.33
4387.19
4391.86
4396.35
4400.66
4404.78
4408.71
4412.45
4416
4419.36
4422.53
4425.5
4428.29
4430.88
4433.27
4435.48
4437.49
4439.3
4440.93
4442.37
4443.62
4444.69
4445.57
4446.29
4446.84
4447.26
4447.59
4448.19
4447.05
4442.64
4438.4
4434.33
4430.2
4425.91
4421.45
4416.84
4412.04
4407.07
4401.92
4396.59
4391.09
4385.42
4379.58
4373.57
4367.39
4361.04
4354.52
4347.85
4341.01
4334.01
4326.86
4319.55
4312.1
4304.49
4296.74
4288.84
4280.81
4272.64
4264.33
4255.9
4247.33
4238.65
4229.84
4220.91
4211.86
4202.71
4193.44
4184.07
4174.6
4165.03
4155.36
4145.6
4135.76
4125.83
4115.82
4105.73
4095.56
4085.33
4075.03
4064.66
4054.23
4043.75
4033.21
4022.62
4011.99
4001.31
3990.59
3979.83
3969.04
3958.22
3947.37
3936.5
3925.6
3914.69
3903.75
3892.81
3881.85
3870.89
3859.92
3848.94
3837.96
3826.99
3816.02
3805.05
3794.1
3783.15
3772.21
3761.29
3750.38
3739.5
3728.63
3717.78
3706.96
3696.16
3685.39
3674.65
3663.95
3653.27
3642.63
3632.03
3621.46
3610.94
3600.46
3590.03
3579.64
3569.31
3559.02
3548.79
3538.61
3528.49
3518.43
3508.43
3498.5
3488.62
3478.82
3469.08
3459.41
3449.82
3440.3
3430.85
3421.48
3412.19
3402.97
3393.84
3384.79
3375.82
3366.94
3358.15
3349.44
3340.82
3332.28
3323.84
3315.49
3307.23
3299.06
3290.98
3283
3275.11
3267.31
3259.61
3252.01
3244.5
3237.08
3229.76
3222.54
3215.42
3208.39
3201.45
3194.62
3187.88
3181.23
3174.68
3168.23
3161.87
3155.61
3149.44
3143.36
3137.38
3131.49
3125.7
3119.99
3114.38
3108.86
3103.42
3098.08
3092.83
3087.66
3082.58
3077.6
3072.69
3067.88
3063.15
3058.51
3053.96
3049.49
3045.12
3040.83
3036.62
3032.51
3028.48
3024.54
3020.7
3016.94
3013.27
3009.69
3006.2
3002.8
2999.49
2996.28
2993.15
2990.12
2987.18
2984.33
2981.58
2978.92
2976.35
2973.87
2971.48
2969.19
2966.99
2964.89
2962.88
2960.96
2959.14
2957.41
2955.77
2954.23
2952.78
2951.43
2950.17
2949.01
2947.94
2946.97
2946.09
2945.3
2944.62
2944.02
2943.52
2943.12
2942.81
2942.6
2942.48
2942.46
2942.53
2942.69
2942.95
2943.3
2943.74
2944.27
2944.89
2945.6
2946.39
2947.27
2948.24
2949.29
2950.41
2951.62
2952.91
2954.28
2955.71
2957.22
2958.8
2960.45
2962.17
2963.95
2965.79
2967.69
2969.65
2971.67
2973.74
2975.87
2978.04
2980.27
2982.54
2984.86
2987.22
2989.63
2992.08
2994.57
2997.11
2999.68
3002.29
3004.93
3007.62
3010.33
3013.09
3015.88
3018.7
3021.56
3024.45
3027.38
3030.34
3033.33
3036.36
3039.42
3042.51
3045.64
3048.8
3051.99
3055.22
3058.49
3061.79
3065.13
3068.5
3071.92
3075.37
3078.86
3082.4
3085.97
3089.6
3093.26
3096.97
3100.73
3104.54
3108.4
3112.32
3116.28
3120.3
3124.38
3128.52
3132.71
3136.97
3141.29
3145.67
3150.12
3154.63
3159.21
3163.87
3168.6
3173.4
3178.26
3183.19
3188.2
3193.27
3198.42
3203.63
3208.92
3214.27
3219.69
3225.17
3230.72
3236.33
3242
3247.73
3253.52
3259.36
3265.25
3271.18
3277.16
3283.19
3289.24
3295.33
3301.45
3307.6
3313.76
3319.94
3326.12
3332.32
3338.51
3344.69
3350.86
3357.02
3363.15
3369.25
3375.32
3381.34
3387.32
3393.24
3399.1
3404.89
3410.61
3416.24
3421.79
3427.23
3432.58
3437.81
3442.93
3447.92
3452.78
3457.5
3462.07
3466.5
3470.76
3474.85
3478.77
3482.51
3486.05
3489.41
3492.56
3495.5
3498.23
3500.73
3503.01
3505.05
3506.86
3508.41
3509.71
3510.76
3511.54
3512.05
3512.29
3512.24
3511.92
3511.3
3510.39
3509.18
3507.66
3505.84
3503.69
3501.26
3498.51
3495.44
3492.04
3488.31
3484.24
3479.83
3475.09
3470.01
3464.59
3458.82
3452.71
3446.26
3439.46
3432.31
3424.82
3416.98
3408.8
3400.27
3391.4
3382.2
3372.66
3362.79
3352.59
3342.06
3331.22
3320.07
3308.6
3296.83
3284.77
3272.42
3259.79
3246.89
3233.73
3220.33
3206.68
3192.8
3178.7
3164.4
3149.91
3135.24
3120.4
3105.41
3090.27
3075.02
3059.64
3044.17
3028.62
3012.99
2997.3
2981.57
2965.81
2950.03
2934.26
2918.5
2902.76
2887.06
2871.4
2855.82
2840.3
2824.87
2809.54
2794.32
2779.21
2764.23
2749.39
2734.69
2720.14
2705.75
2691.54
2677.5
2663.64
2649.97
2636.5
2623.22
2610.15
2597.29
2584.64
2572.21
2560
2548.01
2536.24
2524.7
2513.39
2502.3
2491.44
2480.82
2470.42
2460.25
2450.31
2440.6
2431.11
2421.85
2412.81
2403.98
2395.38
2386.98
2378.8
2370.82
2363.05
2355.48
2348.11
2340.93
2333.94
2327.13
2320.51
2314.07
2307.81
2301.72
2295.79
2290.04
2284.45
2279.01
2273.73
2268.6
2263.63
2258.8
2254.11
2249.56
2245.15
2240.88
2236.73
2232.72
2228.83
2225.06
2221.41
2217.89
2214.48
2211.18
2207.99
2204.91
2201.94
2199.07
2196.31
2193.65
2191.08
2188.61
2186.24
2183.95
2181.76
2179.65
2177.62
2175.69
2173.83
2172.05
2170.35
2168.72
2167.16
2165.68
2164.27
2162.92
2161.64
2160.41
2159.25
2158.14
2157.09
2156.08
2155.13
2154.23
2153.36
2152.55
2151.77
2151.02
2150.32
2149.64
2149
2148.38
2147.78
2147.21
2146.66
2146.13
2145.61
2145.1
2144.6
2144.11
2143.62
2143.13
2142.65
2142.16
2141.67
2141.17
2140.67
2140.15
2139.62
2139.08
2138.52
2137.94
2137.34
2136.72
2136.07
2135.39
2134.69
2133.96
2133.2
2132.4
2131.57
2130.7
2129.8
2128.86
2127.88
2126.86
2125.8
2124.7
2123.56
2122.38
2121.16
2119.9
2118.6
2117.25
2115.86
2114.43
2112.96
2111.45
2109.9
2108.31
2106.68
2105.01
2103.31
2101.56
2099.78
2097.97
2096.13
2094.25
2092.34
2090.41
2088.45
2086.46
2084.46
2082.44
2080.4
2078.34
2076.28
2074.21
2072.13
2070.05
2067.97
2065.89
2063.82
2061.77
2059.73
2057.7
2055.7
2053.73
2051.78
2049.87
2047.99
2046.15
2044.36
2042.62
2040.93
2039.3
2037.72
2036.21
2034.76
2033.39
2032.09
2030.87
2029.74
2028.68
2027.72
2026.85
2026.08
2025.41
2024.85
2024.39
2024.05
2023.83
2023.72
2023.74
2023.9
2024.18
2024.6
2025.17
2025.88
2026.74
2027.76
2028.94
2030.28
2031.78
2033.47
2035.33
2037.37
2039.6
2042.01
2044.63
2047.44
2050.47
2053.7
2057.15
2060.81
2064.7
2068.81
2073.16
2077.74
2082.56
2087.62
2092.91
2098.47
2104.28
2110.33
2116.64
2123.2
2130.01
2137.08
2144.39
2151.97
2159.78
2167.85
2176.17
2184.74
2193.55
2202.6
2211.88
2221.39
2231.12
2241.07
2251.23
2261.58
2272.14
2282.89
2293.8
2304.88
2316.1
2327.47
2338.96
2350.55
2362.24
2374.01
2385.84
2397.71
2409.62
2421.53
2433.43
2445.31
2457.14
2468.89
2480.57
2492.13
2503.55
2514.82
2525.92
2536.83
2547.52
2557.96
2568.14
2578.04
2587.63
2596.89
2605.81
2614.35
2622.51
2630.27
2637.59
2644.46
2650.86
2656.77
2662.19
2667.08
2671.44
2675.25
2678.5
2681.17
2683.25
2684.72
2685.58
2685.81
2685.41
2684.37
2682.68
2680.33
2677.32
2673.63
2669.4
2664.47
2658.89
2652.63
2645.69
2638.08
2629.82
2620.91
2611.34
2601.13
2590.29
2578.82
2566.74
2554.05
2540.76
2526.89
2512.45
2497.46
2481.95
2465.92
2449.39
2432.39
2414.93
2397.06
2378.79
2360.16
2341.18
2321.89
2302.32
2282.5
2262.46
2242.23
2221.86
2201.37
2180.8
2160.18
2139.56
2118.97
2098.44
2077.99
2057.67
2037.5
2017.52
1997.75
1978.22
1958.95
1939.98
1921.33
1903.01
1885.05
1867.45
1850.25
1833.45
1817.07
1801.1
1785.56
1770.45
1755.78
1741.55
1727.76
1714.42
1701.51
1689.04
1676.99
1665.38
1654.18
1643.4
1633.02
1623.05
1613.47
1604.27
1595.46
1587.02
1578.93
1571.2
1563.81
1556.74
1549.99
1543.54
1537.39
1531.52
1525.92
1520.59
1515.51
1510.67
1506.07
1501.69
1497.53
1493.57
1489.81
1486.24
1482.84
1479.6
1476.52
1473.6
1470.81
1468.16
1465.63
1463.23
1460.95
1458.77
1456.7
1454.72
1452.85
1451.06
1449.35
1447.72
1446.17
1444.7
1443.28
1441.93
1440.63
1439.37
1438.15
1436.98
1435.83
1434.71
1433.61
1432.54
1431.47
1430.42
1429.37
1428.33
1427.29
1426.25
1425.2
1424.13
1423.04
1421.93
1420.8
1419.64
1418.44
1417.19
1415.88
1414.51
1413.1
1411.63
1410.1
1408.52
1406.88
1405.17
1403.39
1401.53
1399.59
1397.58
1395.5
1393.33
1391.1
1388.81
1386.46
1384.04
1381.55
1378.99
1376.36
1373.66
1370.89
1368.04
1365.12
1362.14
1359.1
1356.02
1352.89
1349.75
1346.6
1343.43
1340.26
1337.1
1333.95
1330.83
1327.74
1324.68
1321.65
1318.66
1315.72
1312.84
1310.01
1307.26
1304.62
1302.08
1299.66
1297.39
1295.27
1293.29
1291.45
1289.74
1288.15
1286.71
1285.42
1284.32
1283.39
1282.63
1282.04
1281.63
1281.39
1281.33
1281.47
1281.78
1282.27
1282.96
1283.85
1284.96
1286.26
1287.7
1289.29
1291.04
1292.92
1294.89
1296.97
1299.15
1301.43
1303.79
1306.2
1308.66
1311.18
1313.78
1316.39
1318.96
1321.51
1324.03
1326.49
1329.01
1331.68
1334.42
1337.12
1339.64
1342.07
1344.43
1346.71
1348.91
1351.04
1353.16
1355.27
1357.35
1359.38
1361.32
1363.1
1364.71
1366.27
1367.77
1369.06
1370.15
1371.09
1371.91
1372.55
1373.02
1373.36
1373.55
1373.62
1373.55
1373.31
1372.92
1372.44
1371.88
1371.27
1370.64
1369.86
1368.96
1367.97
1366.86
1365.64
1364.38
1363.05
1361.66
1360.25
1358.81
1357.37
1355.91
1354.33
1352.72
1351.11
1349.31
1347.57
1346.02
1344.4
1342.71
1341.03
1339.37
1337.81
1336.47
1335.38
1334.55
1333.95
1333.55
1333.38
1333.4
1333.66
1334.18
1335.05
1336.29
1337.94
1339.95
1342.3
1344.99
1347.95
1351.17
1354.65
1358.4
1362.4
1366.66
1371.09
1375.65
1380.3
1385.02
1389.82
1394.69
1399.62
1404.65
1409.73
1414.85
1419.94
1425
1429.99
1434.89
1439.73
1444.49
1449.15
1453.68
1458.03
1462.18
1466.12
1469.85
1473.38
1476.7
1479.75
1482.51
1485.01
1487.29
1489.36
1491.24
1492.93
1494.46
1495.82
1497.02
1498.07
1498.99
1499.8
1500.47
1500.99
1501.37
1501.64
1501.81
1501.88
1501.86
1501.76
1501.62
1501.5
1501.39
1501.27
1501.15
1501.1
1501.16
1501.36
1501.67
1502.12
1502.75
1503.54
1504.51
1505.58
1506.79
1508.16
1509.62
1511.17
1512.7
1514.19
1515.66
1517.06
1518.32
1519.43
1520.34
1521.05
1521.53
1521.77
1521.73
1521.43
1520.85
1519.9
1518.48
1516.56
1514.13
1511.1
1507.43
1503.15
1498.35
1492.93
1486.71
1479.65
1471.83
1463.35
1454.35
1444.92
1435.17
1425.28
1415.47
1405.99
1397.12
1389.22
1382.47
1377.02
1372.89
1369.94
1367.8
1366.21
1364.92
1363.62
1362.04
1359.83
1356.74
1352.53
1347.17
1340.57
1332.71
1323.54
1313.09
1301.52
1288.94
1275.49
1261.41
1246.94
1232.4
1218.13
1204.57
1192.03
1180.71
1170.84
1162.37
1155.17
1149.14
1143.55
1138.39
1133.24
1127.82
1121.84
1115.15
1107.67
1099.34
1090.16
1080.25
1069.76
1058.97
1048
1036.98
1026.06
1015.36
1004.96
994.996
985.582
976.757
968.514
960.913
954.034
947.662
941.74
936.166
930.776
925.514
920.263
915.043
909.964
904.965
900.063
895.333
890.847
886.624
882.71
879.147
875.941
873.1
870.581
868.396
866.536
864.958
863.662
862.561
861.647
860.982
860.602
860.417
860.322
860.325
860.498
860.765
861.096
861.491
862.017
862.639
863.285
863.968
864.631
865.268
865.903
866.476
867.017
867.524
867.974
868.348
868.666
868.878
868.878
868.756
868.567
868.267
867.854
867.256
866.533
865.749
864.873
863.895
862.804
861.637
860.372
858.987
857.55
856.08
854.577
853.05
851.609
850.277
849.038
847.84
846.641
845.512
844.51
843.68
842.96
842.348
841.869
841.502
841.221
841.027
840.967
841.082
841.376
841.84
842.46
843.225
844.091
845.029
846.069
847.177
848.328
849.484
850.588
851.593
852.522
853.355
854.074
854.682
855.189
855.558
855.794
855.905
855.919
855.855
855.722
855.527
855.296
855.051
854.795
854.529
854.281
854.024
853.801
853.596
853.401
853.232
853.063
852.919
852.841
852.843
852.927
853.092
853.369
853.754
854.226
854.762
855.345
855.951
856.518
856.998
857.384
857.676
857.871
857.978
857.975
857.868
857.693
857.472
857.216
856.928
856.651
856.431
856.245
856.135
856.13
856.2
856.298
856.395
856.512
856.624
856.676
856.697
856.657
856.571
856.448
856.254
856.016
855.754
855.402
855.019
854.663
854.294
853.871
853.412
852.94
852.465
851.975
851.42
850.774
850.103
849.412
848.622
847.602
846.46
845.3
844.097
842.753
841.256
839.486
837.412
835.222
832.858
830.28
827.489
824.569
821.599
818.591
815.614
812.76
810.191
808.22
806.82
806.047
805.83
806.118
806.89
808.112
809.743
811.7
813.883
816.217
818.548
820.784
822.934
825.024
827.029
828.965
830.829
832.624
834.277
835.775
837.145
838.303
839.224
839.805
839.958
839.674
839.024
838.227
837.337
836.308
835.044
833.562
831.907
830.095
828.187
826.151
823.962
821.642
819.249
816.847
814.375
811.781
808.976
805.914
802.593
799.085
795.506
791.847
788.016
784.072
780.007
775.897
771.753
767.575
763.418
759.474
755.934
752.847
750.233
748.01
745.991
743.821
741.234
737.954
733.718
728.606
722.66
716.286
709.583
702.496
695.04
687.203
679.108
670.755
662.27
653.917
646.035
639.113
633.479
629.164
625.447
621.811
617.689
612.681
607.139
601.214
595.13
589.104
583.367
578.043
573.143
568.579
564.05
559.345
554.482
549.554
544.619
539.692
534.753
529.843
524.997
520.331
515.888
511.714
507.811
504.178
500.817
497.7
494.805
492.117
489.565
487.123
484.747
482.4
480.137
478.151
476.476
475.153
474.069
473.218
472.59
472.125
471.763
471.415
471.105
470.788
470.425
469.996
469.482
468.881
468.186
467.338
466.326
465.192
463.984
462.72
461.31
459.749
458.094
456.353
454.531
452.659
450.781
448.946
447.164
445.391
443.721
442.32
441.203
440.387
439.781
439.354
439.093
439.011
439.063
439.091
439.114
439.215
439.386
439.645
439.683
439.457
439.059
438.481
437.632
436.551
435.274
433.842
432.287
430.66
429.025
427.381
425.703
424.102
422.765
421.768
421.143
420.845
420.885
421.193
421.656
422.131
422.521
422.608
422.314
421.746
421.015
420.191
419.278
418.35
417.379
416.216
414.73
413.058
411.475
410.196
409.398
409.147
409.223
409.528
409.925
410.257
410.39
410.236
409.799
409.129
408.207
407.115
405.991
404.822
403.589
402.354
401.131
399.858
398.45
397.073
395.853
394.815
393.9
392.994
391.924
390.732
389.519
388.343
387.164
385.97
384.732
383.536
382.349
381.189
380.111
378.989
377.773
376.183
374.339
372.218
369.984
367.937
366.134
364.623
363.442
362.452
361.569
360.655
359.545
358.3
357.06
355.958
354.977
354.002
352.898
351.689
350.559
349.724
349.137
348.873
348.958
348.189
346.736
344.148
341.964
339.574
337.601
336.182
335.149
334.443
333.706
332.886
331.805
330.473
329.284
328.315
327.561
326.802
325.801
324.419
322.751
321.058
319.419
317.958
316.716
315.528
314.148
312.275
310.531
309.525
309.094
308.675
307.522
305.217
302.736
301.241
300.551
299.724
299.764
300.212
299.888
297.544
292.781
287.273
282.491
278.675
276.682
276.685
278.551
282.088
284.025
282.488
278.462
272.24
266.255
262.11
258.649
254.14
250.3
246.899
243.71
243.124
246.182
251.128
256.068
259.424
260.241
258.107
253.205
245.487
236.967
229.876
224.219
220.365
218.617
219.869
221.602
220.261
214.182
206.379
199.792
195.55
193.037
191.278
189.711
188.438
187.291
185.977
183.777
180.17
175.884
171.729
168.362
166.013
164.316
162.809
161.387
160.02
158.696
157.479
156.299
155.017
153.61
152.181
150.727
149.198
147.674
146.473
145.424
144.533
143.794
143.014
142.287
141.414
140.607
139.891
139.179
138.852
138.485
137.898
137.458
136.98
136.309
135.706
135.089
134.661
134.271
133.846
133.216
132.402
131.492
130.607
129.676
128.699
127.662
126.61
125.006
123.326
122.173
121.449
120.757
119.917
118.352
116.444
114.37
112.723
111.532
110.763
109.372
107.814
106.21
104.508
102.686
100.714
98.4188
95.5742
93.0016
91.1571
89.7837
88.4337
87.0077
85.3151
83.5604
81.5888
79.4856
77.1688
74.8918
73.4428
72.9438
72.8053
72.3213
71.7265
70.9453
69.8812
68.693
67.4823
65.9847
64.7227
63.771
62.779
61.8012
60.9434
60.1041
59.0522
58.3872
57.9817
57.6987
57.4379
57.5994
57.3148
56.0063
54.2796
52.8388
52.1444
51.9091
51.6344
50.5664
49.2302
48.0788
47.7057
47.4327
46.9385
47.6012
48.9864
49.6874
48.6667
46.6836
45.1805
44.2454
43.6075
43.0063
42.7917
42.8572
42.6185
41.997
41.2539
40.6827
40.8127
40.8635
40.871
40.7981
40.936
41.2679
40.922
39.0415
36.9598
35.7114
39.9376
37.3308
32.8777
35.6664
39.242
41.5694
44.0137
41.4824
36.2927
35.4092
37.2067
40.8331
43.0938
44.0779
42.032
40.9501
42.4666
42.1146
41.8519
42.4804
42.987
43.8927
46.8934
44.1746
40.2247
40.3764
40.8015
41.4261
41.7718
39.0289
36.3897
35.1259
35.3004
36.0283
37.1355
37.3473
37.0465
36.2947
34.1517
31.9406
30.7842
29.8488
28.3829
27.6339
26.96
26.4378
25.9081
25.3352
24.7552
24.6514
25.1166
25.6578
25.516
25.1352
24.4999
23.2758
20.9666
19.0434
17.8869
17.0441
16.5396
16.3208
16.2948
16.126
15.8281
15.5528
15.428
15.5022
15.568
15.5499
15.4435
15.1893
14.8328
14.075
13.4556
13.1789
12.6152
11.9601
11.5109
11.148
10.8491
10.0666
9.51646
9.14828
8.90971
8.66119
8.25372
7.77904
7.32542
7.02212
7.0225
7.20086
7.17698
6.56357
5.92931
5.36653
5.18525
5.04877
5.05391
5.15149
5.69221
5.65894
5.4678
5.25802
4.66689
4.36175
4.51372
4.50053
4.004
3.507
3.30736
3.39596
3.69709
3.77859
3.79561
3.38482
3.13811
3.26494
3.59819
3.52496
3.3894
3.59806
3382.28
3389.99
3397.75
3405.6
3413.56
3421.65
3429.9
3438.38
3447.09
3456.17
3465.83
3476.54
3489.59
3515.79
3544.78
3562.86
3578.4
3592.75
3606.42
3619.67
3632.67
3645.5
3658.22
3670.88
3683.5
3696.09
3708.69
3721.28
3733.88
3746.5
3759.12
3771.76
3784.41
3797.07
3809.73
3822.4
3835.07
3847.74
3860.39
3873.03
3885.66
3898.26
3910.83
3923.37
3935.86
3948.31
3960.7
3973.04
3985.31
3997.51
4009.63
4021.66
4033.61
4045.45
4057.2
4068.83
4080.34
4091.73
4102.99
4114.12
4125.1
4135.93
4146.6
4157.11
4167.44
4177.59
4187.55
4197.29
4206.82
4216.1
4225.13
4233.91
4242.42
4250.66
4258.64
4266.34
4273.77
4280.93
4287.81
4294.42
4300.76
4306.82
4312.62
4318.15
4323.41
4328.41
4333.15
4337.63
4341.85
4345.83
4349.56
4353.24
4357.04
4360.58
4363.7
4366.5
4369.01
4371.24
4373.21
4374.91
4376.35
4377.54
4378.46
4379.13
4379.55
4379.7
4379.61
4379.26
4378.66
4377.81
4376.72
4375.37
4373.78
4371.95
4369.88
4367.57
4365.03
4362.26
4359.25
4356.02
4352.57
4348.89
4345
4340.9
4336.59
4332.08
4327.36
4322.45
4317.35
4312.07
4306.6
4300.95
4295.14
4289.15
4283
4276.7
4270.25
4263.64
4256.9
4250.02
4243.01
4235.87
4228.61
4221.24
4213.76
4206.17
4198.49
4190.71
4182.85
4174.9
4166.88
4158.79
4150.63
4142.41
4134.14
4125.82
4117.45
4109.04
4100.61
4092.14
4083.66
4075.17
4066.66
4058.17
4049.69
4041.21
4032.7
4024.14
4015.51
4006.25
3997.14
3988.25
3979.5
3970.84
3962.26
3953.73
3945.28
3936.89
3928.56
3920.29
3912.1
3903.97
3895.91
3887.92
3880
3872.16
3864.39
3856.71
3849.1
3841.57
3834.13
3826.77
3819.5
3812.31
3805.21
3798.2
3791.29
3784.46
3777.73
3771.09
3764.55
3758.1
3751.75
3745.5
3739.34
3733.28
3727.32
3721.46
3715.7
3710.04
3704.48
3699.01
3693.65
3688.39
3683.22
3678.16
3673.19
3668.32
3663.55
3658.87
3654.29
3649.8
3645.41
3641.11
3636.91
3632.79
3628.77
3624.84
3621
3617.25
3613.59
3610.01
3606.52
3603.12
3599.8
3596.56
3593.41
3590.34
3587.35
3584.44
3581.61
3578.86
3576.19
3573.59
3571.07
3568.63
3566.26
3563.96
3561.74
3559.59
3557.51
3555.51
3553.57
3551.7
3549.9
3548.17
3546.51
3544.91
3543.38
3541.92
3540.51
3539.18
3537.9
3536.69
3535.54
3534.46
3533.43
3532.47
3531.57
3530.72
3529.94
3529.22
3528.55
3527.94
3527.39
3526.9
3526.47
3526.09
3525.77
3525.47
3525.22
3525.07
3525.01
3525.01
3525.07
3525.18
3525.36
3525.59
3525.88
3526.24
3526.65
3527.12
3527.65
3528.23
3528.88
3529.59
3530.35
3531.18
3532.07
3533.02
3534.02
3535.09
3536.23
3537.42
3538.68
3540
3541.38
3542.88
3544.29
3545.88
3547.52
3549.23
3551.01
3552.86
3554.77
3556.76
3558.81
3560.94
3563.13
3565.4
3567.75
3570.16
3572.66
3575.23
3577.87
3580.6
3583.4
3586.29
3589.26
3592.31
3595.44
3598.66
3601.97
3605.36
3608.84
3612.42
3616.08
3619.84
3623.69
3627.63
3631.68
3635.82
3640.05
3644.39
3648.83
3653.38
3658.02
3662.77
3667.63
3672.59
3677.65
3682.82
3688.1
3693.49
3698.99
3704.6
3710.31
3716.14
3722.08
3728.13
3734.29
3740.55
3746.92
3753.4
3759.99
3766.69
3773.49
3780.4
3787.41
3794.52
3801.74
3809.06
3816.47
3823.99
3831.59
3839.3
3847.09
3854.97
3862.94
3870.99
3879.13
3887.35
3895.64
3904
3912.44
3920.95
3929.52
3938.15
3946.84
3955.58
3964.37
3973.2
3982.08
3991
3999.95
4008.94
4017.95
4026.97
4036
4045.05
4054.1
4063.15
4072.2
4081.23
4090.26
4099.26
4108.25
4117.2
4126.12
4135
4143.84
4152.62
4161.36
4170.03
4178.65
4187.19
4195.66
4204.05
4212.35
4220.57
4228.7
4236.73
4244.65
4252.47
4260.18
4267.77
4275.24
4282.59
4289.8
4296.89
4303.83
4310.64
4317.3
4323.82
4330.18
4336.38
4342.43
4348.32
4354.04
4359.6
4364.98
4370.19
4375.22
4380.07
4384.75
4389.24
4393.54
4397.66
4401.59
4405.34
4408.89
4412.25
4415.42
4418.39
4421.17
4423.76
4426.16
4428.36
4430.37
4432.19
4433.82
4435.26
4436.51
4437.57
4438.46
4439.18
4439.73
4440.15
4440.48
4441.01
3374.46
3382.14
3389.9
3397.74
3405.7
3413.79
3422.05
3430.52
3439.24
3448.31
3457.98
3468.69
3481.74
3507.93
3536.93
3555.01
3570.55
3584.89
3598.56
3611.82
3624.82
3637.65
3650.37
3663.02
3675.64
3688.24
3700.83
3713.43
3726.03
3738.64
3751.27
3763.91
3776.56
3789.21
3801.88
3814.55
3827.22
3839.88
3852.54
3865.18
3877.81
3890.41
3902.98
3915.51
3928.01
3940.46
3952.85
3965.19
3977.46
3989.66
4001.78
4013.81
4025.76
4037.6
4049.35
4060.98
4072.49
4083.88
4095.14
4106.27
4117.25
4128.08
4138.75
4149.26
4159.59
4169.74
4179.7
4189.44
4198.97
4208.25
4217.28
4226.06
4234.57
4242.81
4250.79
4258.49
4265.92
4273.08
4279.96
4286.57
4292.91
4298.98
4304.77
4310.3
4315.56
4320.56
4325.3
4329.78
4334.01
4337.98
4341.71
4345.39
4349.19
4352.74
4355.86
4358.65
4361.16
4363.4
4365.36
4367.06
4368.51
4369.69
4370.61
4371.28
4371.7
4371.86
4371.76
4371.41
4370.81
4369.96
4368.87
4367.52
4365.94
4364.1
4362.03
4359.73
4357.18
4354.41
4351.4
4348.17
4344.72
4341.04
4337.15
4333.05
4328.74
4324.23
4319.51
4314.6
4309.5
4304.22
4298.75
4293.1
4287.29
4281.3
4275.16
4268.85
4262.4
4255.79
4249.05
4242.17
4235.16
4228.02
4220.76
4213.39
4205.91
4198.32
4190.64
4182.86
4175
4167.05
4159.03
4150.94
4142.78
4134.56
4126.29
4117.96
4109.6
4101.19
4092.76
4084.29
4075.81
4067.31
4058.81
4050.32
4041.84
4033.36
4024.85
4016.29
4007.66
3998.4
3989.29
3980.4
3971.65
3962.99
3954.4
3945.88
3937.43
3929.03
3920.71
3912.44
3904.24
3896.12
3888.06
3880.07
3872.15
3864.31
3856.54
3848.85
3841.25
3833.72
3826.28
3818.92
3811.64
3804.46
3797.36
3790.35
3783.44
3776.61
3769.88
3763.24
3756.7
3750.25
3743.9
3737.64
3731.49
3725.43
3719.47
3713.61
3707.85
3702.19
3696.62
3691.16
3685.8
3680.54
3675.37
3670.3
3665.34
3660.47
3655.69
3651.02
3646.43
3641.95
3637.56
3633.26
3629.05
3624.94
3620.92
3616.99
3613.15
3609.4
3605.73
3602.16
3598.67
3595.26
3591.94
3588.71
3585.56
3582.49
3579.5
3576.59
3573.76
3571.01
3568.33
3565.74
3563.22
3560.78
3558.41
3556.11
3553.89
3551.74
3549.66
3547.66
3545.72
3543.85
3542.05
3540.32
3538.66
3537.06
3535.53
3534.06
3532.66
3531.33
3530.05
3528.84
3527.69
3526.61
3525.58
3524.62
3523.72
3522.87
3522.09
3521.37
3520.7
3520.09
3519.54
3519.05
3518.62
3518.24
3517.91
3517.62
3517.37
3517.22
3517.16
3517.16
3517.21
3517.33
3517.51
3517.74
3518.03
3518.39
3518.8
3519.27
3519.79
3520.38
3521.03
3521.74
3522.5
3523.33
3524.22
3525.16
3526.17
3527.24
3528.38
3529.57
3530.83
3532.15
3533.53
3535.03
3536.44
3538.02
3539.67
3541.38
3543.16
3545.01
3546.92
3548.91
3550.96
3553.08
3555.28
3557.55
3559.89
3562.31
3564.8
3567.37
3570.02
3572.75
3575.55
3578.44
3581.4
3584.45
3587.59
3590.81
3594.11
3597.51
3600.99
3604.56
3608.23
3611.98
3615.84
3619.78
3623.82
3627.96
3632.2
3636.54
3640.98
3645.52
3650.17
3654.92
3659.77
3664.73
3669.8
3674.97
3680.25
3685.64
3691.14
3696.74
3702.46
3708.29
3714.23
3720.28
3726.43
3732.7
3739.07
3745.55
3752.14
3758.84
3765.64
3772.54
3779.56
3786.67
3793.89
3801.2
3808.62
3816.13
3823.74
3831.44
3839.24
3847.12
3855.09
3863.14
3871.28
3879.49
3887.78
3896.15
3904.59
3913.09
3921.66
3930.29
3938.98
3947.72
3956.51
3965.35
3974.23
3983.15
3992.1
4001.08
4010.09
4019.11
4028.15
4037.2
4046.25
4055.3
4064.34
4073.38
4082.4
4091.41
4100.39
4109.35
4118.27
4127.15
4135.98
4144.77
4153.5
4162.18
4170.79
4179.33
4187.8
4196.19
4204.5
4212.72
4220.85
4228.87
4236.8
4244.62
4252.33
4259.92
4267.39
4274.73
4281.95
4289.03
4295.98
4302.79
4309.45
4315.96
4322.33
4328.53
4334.58
4340.47
4346.19
4351.74
4357.13
4362.34
4367.37
4372.22
4376.9
4381.39
4385.69
4389.81
4393.74
4397.48
4401.04
4404.4
4407.57
4410.54
4413.32
4415.91
4418.31
4420.51
4422.52
4424.34
4425.97
4427.41
4428.65
4429.72
4430.61
4431.33
4431.88
4432.29
4432.62
4433.1
3364.11
3371.78
3379.53
3387.38
3395.34
3403.43
3411.68
3420.15
3428.87
3437.94
3447.61
3458.32
3471.37
3497.56
3526.57
3544.64
3560.19
3574.53
3588.2
3601.46
3614.45
3627.28
3640
3652.66
3665.28
3677.88
3690.47
3703.06
3715.67
3728.28
3740.9
3753.54
3766.19
3778.85
3791.52
3804.19
3816.86
3829.52
3842.18
3854.82
3867.44
3880.04
3892.62
3905.15
3917.65
3930.09
3942.49
3954.83
3967.1
3979.3
3991.42
4003.45
4015.4
4027.24
4038.99
4050.62
4062.13
4073.52
4084.78
4095.91
4106.89
4117.72
4128.39
4138.9
4149.24
4159.39
4169.34
4179.09
4188.61
4197.89
4206.93
4215.7
4224.21
4232.46
4240.43
4248.14
4255.57
4262.72
4269.61
4276.22
4282.56
4288.62
4294.42
4299.94
4305.21
4310.2
4314.94
4319.42
4323.65
4327.63
4331.36
4335.04
4338.84
4342.38
4345.5
4348.3
4350.81
4353.04
4355.01
4356.71
4358.15
4359.34
4360.26
4360.93
4361.34
4361.5
4361.41
4361.06
4360.46
4359.61
4358.51
4357.17
4355.58
4353.75
4351.68
4349.37
4346.83
4344.05
4341.05
4337.82
4334.36
4330.69
4326.8
4322.7
4318.39
4313.87
4309.16
4304.25
4299.15
4293.86
4288.39
4282.75
4276.93
4270.95
4264.8
4258.5
4252.04
4245.44
4238.69
4231.81
4224.8
4217.66
4210.4
4203.03
4195.55
4187.96
4180.28
4172.5
4164.64
4156.69
4148.67
4140.58
4132.42
4124.2
4115.93
4107.61
4099.24
4090.83
4082.4
4073.93
4065.45
4056.95
4048.45
4039.96
4031.48
4023
4014.49
4005.93
3997.3
3988.04
3978.93
3970.04
3961.29
3952.63
3944.04
3935.52
3927.07
3918.67
3910.34
3902.08
3893.88
3885.75
3877.69
3869.7
3861.79
3853.95
3846.18
3838.49
3830.88
3823.36
3815.91
3808.56
3801.28
3794.1
3787
3779.99
3773.07
3766.25
3759.52
3752.88
3746.33
3739.89
3733.53
3727.28
3721.12
3715.07
3709.11
3703.25
3697.49
3691.82
3686.26
3680.8
3675.44
3670.17
3665.01
3659.94
3654.97
3650.1
3645.33
3640.65
3636.07
3631.59
3627.2
3622.9
3618.69
3614.58
3610.56
3606.63
3602.79
3599.04
3595.37
3591.8
3588.31
3584.9
3581.58
3578.35
3575.19
3572.12
3569.13
3566.23
3563.4
3560.65
3557.97
3555.38
3552.86
3550.42
3548.05
3545.75
3543.53
3541.38
3539.3
3537.29
3535.36
3533.49
3531.69
3529.96
3528.3
3526.7
3525.17
3523.7
3522.3
3520.97
3519.69
3518.48
3517.33
3516.25
3515.22
3514.26
3513.36
3512.51
3511.73
3511.01
3510.34
3509.73
3509.18
3508.69
3508.26
3507.88
3507.56
3507.26
3507.01
3506.86
3506.8
3506.8
3506.86
3506.97
3507.15
3507.38
3507.67
3508.03
3508.44
3508.91
3509.43