/*--------------------------------*- C++ -*----------------------------------*\
| =========                 |                                                 |
| \\      /  F ield         | OpenFOAM: The Open Source CFD Toolbox           |
|  \\    /   O peration     | Version:  v1812                                 |
|   \\  /    A nd           | Web:      www.OpenFOAM.com                      |
|    \\/     M anipulation  |                                                 |
\*---------------------------------------------------------------------------*/
FoamFile
{
    version     2.0;
    format      ascii;
    class       volScalarField;
    location    "120";
    object      p_rgh;
}
// * * * * * * * * * * * * * * * * * * * * * * * * * * * * * * * * * * * * * //

dimensions      [1 -1 -2 0 0 0 0];


internalField   nonuniform List<scalar> 
212248
(
-530.951
-523.167
-515.41
-507.559
-499.6
-491.509
-483.25
-474.772
-466.057
-456.987
-447.322
-436.613
-423.566
-397.371
-368.376
-350.301
-334.758
-320.414
-306.744
-293.485
-280.489
-267.66
-254.937
-242.281
-229.663
-217.064
-204.472
-191.878
-179.276
-166.662
-154.037
-141.399
-128.75
-116.091
-103.426
-90.7566
-78.0876
-65.4228
-52.7668
-40.1243
-27.5004
-14.9003
-2.32971
10.2058
22.7005
35.1483
47.5431
59.8788
72.149
84.3475
96.4678
108.503
120.448
132.295
144.037
155.669
167.183
178.573
189.833
200.957
211.937
222.767
233.44
243.948
254.282
264.432
274.388
284.133
293.655
302.937
311.97
320.745
329.257
337.502
345.477
353.18
360.611
367.768
374.651
381.261
387.598
393.664
399.459
404.987
410.249
415.248
419.986
424.467
428.694
432.672
436.396
440.073
443.879
447.424
450.544
453.342
455.851
458.083
460.049
461.751
463.194
464.377
465.302
465.971
466.385
466.543
466.448
466.1
465.501
464.652
463.555
462.212
460.624
458.793
456.722
454.414
451.871
449.095
446.09
442.859
439.405
435.732
431.842
427.741
423.431
418.917
414.203
409.294
404.193
398.907
393.439
387.793
381.976
375.991
369.845
363.541
357.085
350.482
343.738
336.857
329.845
322.708
315.451
308.079
300.597
293.012
285.329
277.552
269.689
261.743
253.721
245.628
237.469
229.251
220.978
212.655
204.289
195.885
187.448
178.985
170.501
162.005
153.505
145.011
136.531
128.048
119.538
110.981
102.355
93.0945
83.9808
75.0921
66.345
57.6839
49.096
40.5752
32.1188
23.7262
15.3978
7.13427
-1.06297
-9.19248
-17.2527
-25.2418
-33.1582
-41
-48.7655
-56.4529
-64.0607
-71.5871
-79.0307
-86.3899
-93.6633
-100.849
-107.947
-114.955
-121.872
-128.697
-135.43
-142.068
-148.611
-155.059
-161.41
-167.664
-173.821
-179.879
-185.838
-191.698
-197.459
-203.121
-208.682
-214.145
-219.508
-224.771
-229.936
-235.002
-239.97
-244.841
-249.614
-254.291
-258.873
-263.359
-267.75
-272.048
-276.253
-280.366
-284.387
-288.317
-292.158
-295.91
-299.574
-303.15
-306.64
-310.044
-313.364
-316.6
-319.752
-322.823
-325.812
-328.721
-331.55
-334.301
-336.973
-339.569
-342.088
-344.532
-346.901
-349.196
-351.418
-353.568
-355.646
-357.653
-359.59
-361.458
-363.257
-364.988
-366.651
-368.248
-369.78
-371.245
-372.646
-373.983
-375.257
-376.468
-377.616
-378.702
-379.727
-380.691
-381.594
-382.437
-383.215
-383.94
-384.616
-385.224
-385.768
-386.258
-386.692
-387.069
-387.395
-387.69
-387.938
-388.086
-388.15
-388.153
-388.095
-387.979
-387.803
-387.569
-387.276
-386.924
-386.514
-386.044
-385.516
-384.928
-384.281
-383.574
-382.807
-381.981
-381.093
-380.146
-379.137
-378.066
-376.934
-375.739
-374.482
-373.163
-371.777
-370.274
-368.875
-367.286
-365.643
-363.929
-362.15
-360.303
-358.388
-356.404
-354.35
-352.224
-350.027
-347.758
-345.415
-342.997
-340.504
-337.935
-335.288
-332.563
-329.758
-326.872
-323.905
-320.855
-317.72
-314.501
-311.194
-307.8
-304.317
-300.744
-297.08
-293.323
-289.472
-285.526
-281.484
-277.345
-273.106
-268.768
-264.328
-259.784
-255.136
-250.385
-245.532
-240.573
-235.508
-230.336
-225.055
-219.667
-214.169
-208.562
-202.845
-197.015
-191.074
-185.026
-178.871
-172.608
-166.235
-159.754
-153.166
-146.47
-139.668
-132.761
-125.749
-118.635
-111.419
-104.102
-96.686
-89.1731
-81.5646
-73.8628
-66.0695
-58.1873
-50.2183
-42.1645
-34.0287
-25.8132
-17.5206
-9.15382
-0.716009
7.78929
16.3591
24.99
33.6781
42.4194
51.2089
60.0422
68.9229
77.8423
86.7916
95.7786
104.787
113.81
122.847
131.892
140.942
149.994
159.04
168.076
177.1
186.106
195.09
204.043
212.962
221.842
230.678
239.466
248.2
256.875
265.487
274.03
282.498
290.888
299.195
307.414
315.54
323.568
331.494
339.313
347.02
354.611
362.081
369.427
376.643
383.727
390.674
397.48
404.142
410.656
417.019
423.226
429.274
435.161
440.883
446.437
451.819
457.028
462.061
466.915
471.588
476.079
480.384
484.503
488.434
492.176
495.728
499.088
502.256
505.232
508.015
510.605
513
515.203
517.213
519.031
520.658
522.096
523.345
524.413
525.296
526.021
526.569
526.988
527.318
527.917
528.184
526.571
525.139
523.874
522.537
521.05
519.396
517.581
515.585
513.408
511.055
508.527
505.823
502.948
499.905
496.69
493.303
489.746
486.024
482.138
478.091
473.885
469.522
465.006
460.338
455.52
450.556
445.449
440.202
434.816
429.296
423.644
417.864
411.958
405.929
399.782
393.518
387.142
380.657
374.066
367.371
360.578
353.689
346.708
339.638
332.482
325.245
317.93
310.539
303.077
295.546
287.951
280.294
272.58
264.811
256.992
249.125
241.213
233.261
225.271
217.246
209.189
201.103
192.993
184.859
176.706
168.536
160.35
152.154
143.948
135.736
127.519
119.3
111.082
102.867
94.6566
86.4539
78.2613
70.0788
61.9093
53.7546
45.6187
37.5025
29.4073
21.3352
13.2874
5.2658
-2.72648
-10.6877
-18.6158
-26.5096
-34.3673
-42.1862
-49.9644
-57.6999
-65.3906
-73.0346
-80.6303
-88.1755
-95.6679
-103.106
-110.487
-117.81
-125.072
-132.272
-139.408
-146.478
-153.48
-160.413
-167.275
-174.064
-180.778
-187.417
-193.979
-200.461
-206.863
-213.184
-219.423
-225.577
-231.646
-237.628
-243.525
-249.333
-255.051
-260.679
-266.217
-271.664
-277.019
-282.281
-287.449
-292.524
-297.505
-302.392
-307.183
-311.88
-316.481
-320.986
-325.396
-329.711
-333.931
-338.053
-342.081
-346.013
-349.851
-353.594
-357.241
-360.794
-364.254
-367.622
-370.895
-374.076
-377.165
-380.164
-383.073
-385.89
-388.618
-391.257
-393.808
-396.272
-398.647
-400.935
-403.136
-405.251
-407.279
-409.221
-411.076
-412.844
-414.526
-416.121
-417.63
-419.05
-420.381
-421.625
-422.781
-423.847
-424.826
-425.716
-426.514
-427.223
-427.84
-428.367
-428.804
-429.149
-429.403
-429.565
-429.635
-429.614
-429.5
-429.295
-428.997
-428.606
-428.123
-427.546
-426.877
-426.115
-425.26
-424.312
-423.27
-422.134
-420.906
-419.583
-418.166
-416.655
-415.05
-413.351
-411.557
-409.668
-407.685
-405.608
-403.437
-401.17
-398.808
-396.353
-393.804
-391.161
-388.424
-385.595
-382.674
-379.661
-376.558
-373.364
-370.082
-366.713
-363.257
-359.715
-356.09
-352.382
-348.594
-344.726
-340.781
-336.761
-332.667
-328.501
-324.265
-319.962
-315.593
-311.16
-306.665
-302.111
-297.499
-292.831
-288.11
-283.336
-278.512
-273.638
-268.718
-263.752
-258.742
-253.688
-248.593
-243.458
-238.282
-233.068
-227.817
-222.528
-217.204
-211.844
-206.449
-201.019
-195.556
-190.06
-184.53
-178.967
-173.372
-167.744
-162.083
-156.39
-150.663
-144.904
-139.111
-133.284
-127.423
-121.527
-115.595
-109.628
-103.623
-97.5813
-91.5004
-85.3799
-79.2187
-73.0156
-66.7693
-60.4785
-54.1419
-47.7583
-41.3262
-34.844
-28.3104
-21.7239
-15.0828
-8.38575
-1.63117
5.18247
12.0566
18.9926
25.992
33.0551
40.1839
47.3811
54.6491
61.9903
69.4028
76.879
84.4249
92.0407
99.7243
107.478
115.302
123.196
131.157
139.182
147.273
155.428
163.645
171.922
180.256
188.646
197.088
205.579
214.117
222.698
231.32
239.977
248.668
257.386
266.128
274.888
283.663
292.445
301.232
310.017
318.796
327.562
336.31
345.035
353.729
362.387
371.002
379.568
388.079
396.527
404.907
413.212
421.433
429.564
437.598
445.528
453.348
461.048
468.623
476.064
483.366
490.522
497.524
504.365
511.039
517.536
523.852
529.979
535.91
541.638
547.157
552.459
557.54
562.39
567.006
571.381
575.509
579.384
582.999
586.351
589.433
592.24
594.766
597.007
598.958
600.613
601.969
603.021
603.762
604.178
604.314
604.126
603.613
602.775
601.606
600.097
598.252
596.071
593.552
590.689
587.482
583.929
580.03
575.785
571.195
566.259
560.976
555.345
549.372
543.057
536.406
529.418
522.096
514.446
506.472
498.179
489.571
480.653
471.431
461.914
452.111
442.028
431.675
421.061
410.195
399.089
387.753
376.199
364.441
352.489
340.357
328.058
315.605
303.011
290.289
277.454
264.52
251.499
238.404
225.25
212.052
198.826
185.586
172.344
159.114
145.906
132.734
119.613
106.556
93.5697
80.669
67.8651
55.1681
42.5873
30.1325
17.8132
5.6385
-6.38482
-18.2478
-29.9411
-41.4584
-52.795
-63.9442
-74.8986
-85.6536
-96.2041
-106.547
-116.678
-126.593
-136.289
-145.763
-155.014
-164.039
-172.838
-181.41
-189.752
-197.866
-205.75
-213.407
-220.836
-228.037
-235.015
-241.769
-248.304
-254.619
-260.719
-266.605
-272.283
-277.754
-283.021
-288.088
-292.958
-297.635
-302.123
-306.424
-310.542
-314.482
-318.246
-321.838
-325.26
-328.517
-331.613
-334.551
-337.334
-339.963
-342.444
-344.78
-346.974
-349.027
-350.943
-352.727
-354.38
-355.904
-357.303
-358.58
-359.735
-360.773
-361.696
-362.506
-363.206
-363.797
-364.281
-364.663
-364.943
-365.121
-365.202
-365.188
-365.082
-364.885
-364.599
-364.227
-363.77
-363.228
-362.606
-361.905
-361.13
-360.281
-359.36
-358.363
-357.3
-356.174
-354.985
-353.735
-352.427
-351.062
-349.643
-348.174
-346.656
-345.091
-343.483
-341.832
-340.142
-338.416
-336.655
-334.863
-333.042
-331.196
-329.324
-327.43
-325.518
-323.59
-321.648
-319.694
-317.732
-315.763
-313.789
-311.816
-309.841
-307.868
-305.9
-303.94
-301.989
-300.049
-298.121
-296.21
-294.315
-292.44
-290.587
-288.756
-286.951
-285.174
-283.424
-281.706
-280.02
-278.367
-276.748
-275.167
-273.622
-272.115
-270.649
-269.222
-267.835
-266.49
-265.182
-263.917
-262.695
-261.515
-260.377
-259.282
-258.228
-257.216
-256.246
-255.318
-254.431
-253.584
-252.777
-252.008
-251.278
-250.586
-249.929
-249.307
-248.719
-248.162
-247.635
-247.138
-246.666
-246.218
-245.792
-245.386
-244.995
-244.62
-244.257
-243.901
-243.553
-243.207
-242.86
-242.51
-242.153
-241.785
-241.402
-241.002
-240.581
-240.134
-239.659
-239.151
-238.607
-238.023
-237.395
-236.719
-235.991
-235.208
-234.367
-233.462
-232.49
-231.448
-230.332
-229.138
-227.862
-226.501
-225.051
-223.507
-221.867
-220.127
-218.282
-216.326
-214.259
-212.075
-209.771
-207.341
-204.782
-202.091
-199.263
-196.293
-193.176
-189.91
-186.489
-182.911
-179.169
-175.259
-171.176
-166.915
-162.474
-157.848
-153.03
-148.016
-142.803
-137.384
-131.755
-125.912
-119.852
-113.57
-107.061
-100.321
-93.3478
-86.1368
-78.6867
-70.9954
-63.0459
-54.8522
-46.4061
-37.7059
-28.7587
-19.5598
-10.1087
-0.403795
9.55317
19.7571
30.2121
40.9174
51.8683
63.0622
74.4921
86.1539
98.0447
110.157
122.489
135.027
147.766
160.703
173.826
187.12
200.57
214.173
227.914
241.779
255.751
269.816
283.955
298.157
312.406
326.683
340.967
355.243
369.491
383.687
397.815
411.855
425.783
439.577
453.217
466.684
479.957
493.01
505.82
518.365
530.625
542.578
554.204
565.481
576.391
586.913
597.025
606.705
615.935
624.695
632.969
640.74
647.992
654.708
660.874
666.476
671.504
675.941
679.769
682.979
685.563
687.515
688.826
689.487
689.492
688.829
687.489
685.606
683.03
679.791
675.882
671.287
666.022
660.107
653.541
646.319
638.453
629.956
620.832
611.091
600.741
589.795
578.266
566.169
553.522
540.345
526.656
512.467
497.799
482.681
467.142
451.211
434.912
418.27
401.314
384.078
366.59
348.883
330.991
312.946
294.784
276.544
258.26
239.97
221.707
203.501
185.385
167.391
149.548
131.889
114.445
97.241
80.3006
63.6552
47.3273
31.3308
15.6871
0.411777
-14.4675
-28.9441
-43.0129
-56.6614
-69.8846
-82.6751
-95.0245
-106.935
-118.406
-129.436
-140.028
-150.186
-159.915
-169.218
-178.102
-186.572
-194.635
-202.298
-209.566
-216.447
-222.95
-229.083
-234.858
-240.284
-245.37
-250.128
-254.571
-258.711
-262.559
-266.123
-269.416
-272.448
-275.224
-277.756
-280.054
-282.131
-283.993
-285.65
-287.11
-288.385
-289.487
-290.424
-291.203
-291.832
-292.321
-292.676
-292.903
-293.008
-293
-292.883
-292.662
-292.341
-291.926
-291.424
-290.839
-290.174
-289.433
-288.621
-287.743
-286.808
-285.823
-284.792
-283.719
-282.61
-281.471
-280.308
-279.118
-277.907
-276.686
-275.459
-274.223
-272.98
-271.734
-270.495
-269.266
-268.053
-266.862
-265.695
-264.552
-263.426
-262.349
-261.327
-260.36
-259.446
-258.586
-257.784
-257.036
-256.342
-255.71
-255.146
-254.654
-254.241
-253.906
-253.645
-253.461
-253.356
-253.319
-253.339
-253.422
-253.574
-253.795
-254.087
-254.451
-254.886
-255.395
-255.978
-256.632
-257.349
-258.126
-258.952
-259.812
-260.692
-261.586
-262.492
-263.4
-264.302
-265.193
-266.058
-266.887
-267.689
-268.466
-269.199
-269.882
-270.515
-271.089
-271.581
-271.974
-272.254
-272.425
-272.443
-272.315
-272.041
-271.628
-271.092
-270.429
-269.628
-268.665
-267.521
-266.201
-264.713
-263.055
-261.203
-257.586
-251.652
-245.765
-242.108
-240.625
-243.186
-241.95
-238.561
-234.724
-231.028
-227.944
-224.586
-220.735
-216.575
-212.263
-207.843
-202.297
-193.535
-183.998
-176.113
-170.496
-167.206
-169.84
-168.099
-163.357
-156.565
-148.266
-142.939
-140.444
-139.445
-136.039
-131.367
-126.71
-122.133
-117.737
-113.415
-109.077
-104.702
-100.354
-96.089
-91.8339
-86.2122
-78.1151
-71.6397
-68.9359
-70.6217
-68.7229
-65.5307
-62.2606
-58.5362
-54.6927
-51.2537
-48.8881
-48.0913
-46.226
-44.0794
-42.1032
-40.1822
-38.0061
-35.7452
-33.1153
-32.6944
-31.9866
-30.6581
-29.4109
-28.0253
-26.6438
-25.4532
-24.5201
-24.0936
-23.9316
-23.4589
-22.7507
-21.9981
-20.967
-12.4506
5.70419
12.5124
3.71003
-13.0341
-17.2895
-16.947
-16.4486
-15.488
-13.9569
-12.6991
-11.603
-10.5213
-8.99886
-7.37632
-5.9778
-3.26671
6.25051
18.7941
26.3791
28.2059
19.5006
16.0376
19.7972
24.5566
30.1492
42.4014
57.9337
68.2243
73.2976
69.0584
67.7762
72.6193
79.3561
86.3205
95.3372
111.653
128.554
138.542
142.087
137.576
138.063
143.795
150.846
158.498
165.674
172.187
178.621
185.275
192.564
208.111
228.532
241.804
247.631
241.227
233.198
232.707
236.278
240.672
245.099
249.308
253.284
257.157
261.11
268.163
281.073
288.775
291.019
285.883
281.577
281.598
283.964
286.262
288.653
292.385
305.889
320.75
322.132
314.513
304.943
303.273
308.113
314.345
316.587
316.359
315.012
317.19
320.674
328.572
350.179
372.573
376.153
369.774
355.166
345.921
347.673
351.331
355.317
359.757
362.717
365.26
367.715
370.468
374.304
390.511
400.793
396.321
384.948
379.996
380.156
380.013
381.952
398.508
417.596
410.072
384.665
366.872
360.609
355.704
350.414
343.475
334.967
326.886
319.081
311.409
309.445
321.102
326.525
320.936
298.796
284.174
281.11
281.11
282.797
285.545
286.505
285.1
284.297
284.233
282.758
279.05
273.721
267.857
260.917
252.694
242.926
231.938
220.413
208.445
200.453
211.859
228.083
230.232
221.417
195.043
156.286
131.369
122.261
118.013
114.431
111.25
108.207
105.166
101.871
97.4467
92.0445
85.738
78.6634
70.9486
62.6624
53.989
44.8579
35.6428
27.4034
24.518
23.7426
19.0302
3.75636
-8.02828
-15.4232
-21.4243
-27.0756
-32.4715
-36.3311
-34.5784
-23.6449
-11.9257
-10.1079
-16.6441
-39.0718
-55.7562
-61.1604
-63.9363
-65.9957
-66.7408
-67.1488
-68.013
-69.0738
-70.576
-72.2607
-73.2958
-73.4963
-73.0845
-71.187
-54.7619
-30.3294
-26.7818
-48.0104
-63.1937
-62.5278
-60.5395
-56.8037
-42.2997
-27.0428
-22.6159
-29.3811
-37.1912
-36.0623
-24.0926
-14.9394
-13.2353
-26.1741
-26.9826
-23.8573
-18.9095
-15.4941
-14.1573
-14.3274
-12.2946
3.37805
24.5358
33.6403
29.2837
7.86683
-2.20762
-2.45965
-1.13613
2.14443
7.27279
9.8477
7.29835
4.1314
4.15764
4.75101
5.43779
15.4612
38.2196
51.9203
53.4347
39.1179
23.2976
19.4085
20.2128
21.9707
17.2798
16.2819
17.4632
19.0335
20.7976
22.7171
24.2788
25.6513
27.737
30.4491
40.4883
57.1709
72.3023
79.8403
83.3244
77.7805
64.595
56.8175
57.6088
60.6998
63.8789
67.0855
70.1531
72.9784
75.4465
77.4787
79.6382
84.2624
94.0476
105.146
112.609
115.826
117.676
113.553
105.039
99.57
100.234
103.174
110.3
115.98
118.558
117.368
113.703
112.806
114.504
117.065
123.719
130.7
133.083
129.926
128.069
129.762
132.398
135.171
137.844
143.046
151.868
159.454
163.213
164.671
160.978
157.457
156.847
158.33
161.703
164.041
164.851
165.755
168.092
176.008
184.615
187.621
183.727
178.688
179.314
181.404
185.735
193.145
197.497
198.203
194.441
193.654
195.151
196.981
200.489
212.171
225.584
228.543
219.484
210.509
209.685
211.018
213.488
214.965
215.589
216.605
217.869
219.163
223.548
232.522
237.57
237.889
229.829
225.464
225.656
232.245
246.907
249.78
238.227
226.855
223.72
222.902
222.67
221.892
220.801
225.415
239.853
249.555
251.735
249.847
245.188
243.106
243.25
243.52
243.105
242.374
243.934
248.678
257.492
269.376
274.293
272.427
270.347
271.416
275.556
279.858
286.827
295.782
298.616
298.276
296.659
298.468
301.31
310.055
319.292
318.482
311.92
307.098
307.199
307.863
309.766
315.411
316.473
314.164
310.356
309.496
311.647
309.933
307.857
306.081
305.185
304.837
309.023
314.644
312.033
303.812
296.853
295.176
299.881
301.749
294.455
286.641
283.698
281.846
280.48
279.542
278.957
278.37
278.168
279.42
281.469
282.064
280.447
277.453
272.244
264.548
257.913
252.529
247.048
241.197
235.163
230.116
226.008
221.475
216.147
211.104
205.322
200.39
197.526
195.73
193.604
190.593
187.031
183.059
178.927
174.947
173.023
172.989
172.566
170.536
166.43
159.708
154.496
151.195
148.208
145.451
143.554
141.378
138.483
134.637
131.477
129.641
129.82
129.992
129.038
126.901
123.571
121.579
120.745
120.285
120.366
120.545
120.372
119.958
119.777
120.263
121.084
122.144
123.453
125.17
128.935
133.489
136.761
138.6
138.237
136.527
136.333
137.421
138.682
139.831
140.836
141.707
142.528
143.314
143.827
144.008
144.195
144.407
144.54
144.616
144.69
144.905
145.593
146.416
146.567
146.194
146.884
147.984
149.308
150.842
153.439
157.154
160.444
162.573
162.992
163.051
164.56
166.709
168.693
170.407
172.043
174.357
176.806
178.448
179.192
178.666
177.544
177.243
177.451
177.748
178.03
178.384
178.992
179.935
181.247
182.884
184.869
187.236
189.835
192.297
194.323
196.234
197.874
199.343
200.629
201.75
202.71
203.648
204.58
205.336
205.906
206.633
207.384
208.145
209.15
210.351
212.134
214.42
216.902
219.073
220.773
222.5
223.997
225.272
226.286
227.118
227.899
228.623
229.301
230.01
231.036
232.193
232.804
232.754
233.288
234.154
235.276
236.44
237.333
237.958
238.54
239.217
239.888
241.318
245.99
248.498
245.628
243.67
244.221
245.402
247.386
248.686
248.993
248.784
248.094
246.628
245.729
246.031
246.758
247.744
248.746
249.607
250.368
251.035
251.897
253.424
255.409
257.034
258.398
259.292
259.662
258.974
259.312
260.916
262.92
264.678
265.891
265.344
264.92
264.324
264.791
265.576
266.383
266.91
267.186
267.642
268.306
268.865
269.596
270.526
271.695
273.184
274.593
275.201
275.043
274.734
274.947
275.473
276.312
277.995
277.882
277.268
277.464
278.483
279.993
281.496
282.213
281.787
281.105
282.944
283.354
283.568
285.477
287.892
289.426
288.872
285.974
282.337
279.539
277.614
277.348
279.191
282.914
288.337
292.183
292.576
290.434
286.056
281.906
279.62
278.036
275.419
273.454
271.924
270.616
271.872
276.776
283.586
290.414
295.63
298.365
298.181
295.135
288.867
281.498
275.966
272.223
270.993
271.706
274.94
278.542
278.859
274.238
268.124
263.474
261.544
261.129
261.222
261.139
261.277
261.952
263.069
263.046
261.325
258.717
255.54
253.167
253.439
254.655
255.152
255.58
256.051
256.579
257.218
257.896
258.477
258.936
259.374
259.779
259.285
257.266
256.546
257.178
259.676
262.969
264.862
266.007
266.895
267.882
269.014
270.21
271.778
272.896
271.315
270.266
271.497
275.852
279.48
281.075
282.436
283.73
284.991
285.98
286.85
287.793
289.019
290.083
289.453
284.473
282.525
283.434
286.454
288.291
292.522
295.475
296.75
297.03
296.783
296.466
296.66
297.356
298.521
299.079
299.444
298.443
293.512
291.506
294.218
298.162
298.23
297.527
296.901
297.209
298.242
299.23
299.411
299.323
298.655
298.209
298.367
298.013
298.245
299.557
301.376
302.802
304.048
305.1
305.887
306.543
307.117
307.323
307.941
308.902
309.711
310.506
311.456
312.429
313.187
314.311
315.678
317.179
318.664
320.48
321.835
322.291
322.351
322.682
323.795
325.39
326.92
327.696
328.275
328.974
330.202
331.335
332.581
335.267
338.58
341.281
342.353
342.352
342.686
343.521
344.547
345.59
347.05
348.881
350.486
351.703
352.317
352.702
354.312
356.603
359.31
361.043
361.556
363.18
366.795
367.456
367.221
365.6
363.389
352.961
344.384
345.568
357.959
367.213
371.928
370.923
361.711
356.528
370.72
381.712
386.734
390.738
389.638
388.86
399.267
402.3
404.257
407.202
409.621
411.933
415.543
415.226
412.813
416.043
418.527
421.003
422.981
422.432
420.94
420.947
422.666
424.755
426.615
425.802
422.807
419.328
416.173
411.854
410.4
411.138
413.738
416.785
418.662
420.034
421.217
420.475
417.889
416.059
416.148
413.889
410.632
411.458
413.113
411.141
406.404
381.553
357.655
336.08
323.711
326.45
344.459
352.488
353.413
343.61
333.813
333.838
340.76
351.989
358.594
359.56
350.46
337.038
330.087
316.475
310.05
296.947
284.111
270.565
261.399
258.243
252.157
247.422
240.581
233.094
221.816
209.181
198.337
192.311
188.374
183.481
170.678
148.656
126.299
118.598
125.274
136.466
138.824
138.393
139.646
138.564
124.779
105.933
97.1732
96.4724
98.9357
101.084
101.821
97.6314
88.796
81.4083
79.3817
80.3392
79.6664
71.13
63.3548
57.8075
54.9479
52.3412
47.4623
45.6004
-530.878
-523.168
-515.411
-507.561
-499.602
-491.511
-483.255
-474.782
-466.065
-456.991
-447.325
-436.615
-423.567
-397.374
-368.377
-350.301
-334.759
-320.414
-306.744
-293.486
-280.49
-267.661
-254.938
-242.282
-229.664
-217.066
-204.473
-191.879
-179.277
-166.663
-154.038
-141.4
-128.751
-116.092
-103.426
-90.7573
-78.0882
-65.4234
-52.7673
-40.1248
-27.5008
-14.9007
-2.33006
10.2056
22.7003
35.1481
47.543
59.8787
72.149
84.3475
96.4679
108.504
120.448
132.295
144.037
155.669
167.183
178.573
189.833
200.957
211.937
222.768
233.441
243.948
254.282
264.433
274.388
284.134
293.656
302.938
311.971
320.746
329.258
337.503
345.478
353.181
360.612
367.769
374.652
381.262
387.599
393.665
399.461
404.988
410.25
415.249
419.987
424.468
428.696
432.674
436.4
440.081
443.88
447.425
450.545
453.343
455.852
458.084
460.05
461.753
463.195
464.378
465.304
465.973
466.386
466.544
466.449
466.101
465.502
464.653
463.556
462.213
460.625
458.794
456.724
454.415
451.872
449.096
446.091
442.86
439.406
435.732
431.843
427.742
423.432
418.918
414.204
409.295
404.194
398.908
393.439
387.794
381.977
375.992
369.845
363.542
357.086
350.483
343.738
336.858
329.846
322.709
315.451
308.079
300.598
293.013
285.329
277.553
269.689
261.744
253.722
245.629
237.47
229.251
220.978
212.656
204.289
195.885
187.448
178.985
170.502
162.006
153.505
145.011
136.532
128.05
119.541
110.982
102.355
93.094
83.9808
75.0922
66.3451
57.684
49.0962
40.5753
32.1189
23.7264
15.3979
7.13439
-1.06285
-9.19236
-17.2525
-25.2417
-33.1581
-40.9999
-48.7654
-56.4529
-64.0606
-71.5871
-79.0307
-86.3899
-93.6632
-100.849
-107.947
-114.955
-121.872
-128.697
-135.43
-142.068
-148.611
-155.059
-161.41
-167.664
-173.821
-179.879
-185.838
-191.698
-197.459
-203.121
-208.682
-214.145
-219.508
-224.771
-229.936
-235.002
-239.97
-244.841
-249.614
-254.291
-258.872
-263.359
-267.75
-272.048
-276.253
-280.365
-284.387
-288.317
-292.158
-295.91
-299.573
-303.15
-306.64
-310.044
-313.364
-316.599
-319.752
-322.823
-325.812
-328.721
-331.55
-334.3
-336.973
-339.568
-342.088
-344.531
-346.9
-349.196
-351.418
-353.567
-355.645
-357.653
-359.59
-361.457
-363.256
-364.987
-366.651
-368.248
-369.779
-371.244
-372.645
-373.982
-375.256
-376.467
-377.615
-378.701
-379.726
-380.69
-381.593
-382.435
-383.215
-383.939
-384.613
-385.222
-385.767
-386.257
-386.691
-387.068
-387.394
-387.689
-387.937
-388.085
-388.149
-388.151
-388.094
-387.977
-387.802
-387.568
-387.275
-386.923
-386.512
-386.043
-385.514
-384.927
-384.279
-383.573
-382.806
-381.979
-381.092
-380.144
-379.135
-378.065
-376.933
-375.738
-374.481
-373.162
-371.775
-370.276
-368.873
-367.284
-365.641
-363.928
-362.149
-360.302
-358.387
-356.403
-354.348
-352.223
-350.026
-347.757
-345.413
-342.996
-340.503
-337.934
-335.287
-332.561
-329.757
-326.871
-323.904
-320.854
-317.72
-314.5
-311.194
-307.8
-304.317
-300.744
-297.079
-293.322
-289.472
-285.526
-281.484
-277.344
-273.106
-268.768
-264.328
-259.784
-255.136
-250.385
-245.532
-240.573
-235.508
-230.336
-225.055
-219.667
-214.169
-208.562
-202.845
-197.015
-191.075
-185.027
-178.872
-172.608
-166.236
-159.755
-153.166
-146.47
-139.669
-132.762
-125.75
-118.636
-111.42
-104.103
-96.687
-89.1741
-81.5657
-73.8639
-66.0706
-58.1885
-50.2195
-42.1658
-34.03
-25.8145
-17.522
-9.15521
-0.717426
7.78784
16.3576
24.9885
33.6766
42.4178
51.2073
60.0405
68.9212
77.8406
86.7899
95.777
104.786
113.809
122.845
131.89
140.94
149.992
159.038
168.074
177.098
186.105
195.088
204.041
212.96
221.84
230.676
239.464
248.198
256.874
265.485
274.028
282.497
290.887
299.194
307.412
315.538
323.567
331.493
339.312
347.019
354.61
362.08
369.425
376.642
383.726
390.673
397.479
404.141
410.655
417.018
423.225
429.273
435.16
440.882
446.436
451.819
457.028
462.061
466.915
471.588
476.078
480.384
484.503
488.434
492.176
495.728
499.088
502.256
505.232
508.015
510.605
513
515.203
517.213
519.031
520.658
522.096
523.345
524.413
525.297
526.021
526.569
526.988
527.316
527.854
-530.849
-523.169
-515.413
-507.563
-499.604
-491.514
-483.259
-474.791
-466.072
-456.996
-447.329
-436.619
-423.571
-397.38
-368.378
-350.302
-334.76
-320.416
-306.746
-293.488
-280.492
-267.663
-254.941
-242.284
-229.666
-217.068
-204.475
-191.881
-179.278
-166.665
-154.04
-141.402
-128.752
-116.094
-103.428
-90.7587
-78.0896
-65.4247
-52.7685
-40.1259
-27.5018
-14.9017
-2.33088
10.2048
22.6996
35.1476
47.5425
59.8784
72.1488
84.3474
96.4679
108.504
120.448
132.295
144.038
155.669
167.184
178.574
189.834
200.958
211.939
222.769
233.442
243.95
254.284
264.435
274.39
284.136
293.658
302.94
311.973
320.748
329.26
337.505
345.48
353.184
360.615
367.771
374.655
381.264
387.602
393.667
399.463
404.991
410.253
415.251
419.989
424.471
428.698
432.676
436.404
440.086
443.882
447.427
450.547
453.346
455.854
458.087
460.053
461.755
463.197
464.381
465.306
465.975
466.389
466.547
466.452
466.104
465.505
464.656
463.559
462.215
460.627
458.797
456.726
454.418
451.874
449.099
446.094
442.862
439.408
435.735
431.845
427.744
423.434
418.92
414.206
409.297
404.196
398.91
393.441
387.796
381.979
375.994
369.847
363.543
357.087
350.484
343.74
336.859
329.848
322.71
315.453
308.081
300.599
293.014
285.33
277.554
269.69
261.745
253.723
245.63
237.471
229.252
220.979
212.656
204.29
195.886
187.449
178.986
170.502
162.006
153.506
145.012
136.532
128.051
119.543
110.983
102.355
93.0934
83.9807
75.092
66.3449
57.6838
49.096
40.5751
32.1186
23.726
15.3975
7.13398
-1.0633
-9.19286
-17.2531
-25.2423
-33.1587
-41.0006
-48.7661
-56.4536
-64.0613
-71.5878
-79.0314
-86.3906
-93.664
-100.85
-107.948
-114.956
-121.873
-128.698
-135.43
-142.069
-148.612
-155.06
-161.411
-167.665
-173.821
-179.88
-185.839
-191.699
-197.46
-203.121
-208.683
-214.146
-219.509
-224.772
-229.937
-235.003
-239.971
-244.842
-249.615
-254.292
-258.873
-263.359
-267.751
-272.049
-276.254
-280.366
-284.387
-288.318
-292.159
-295.91
-299.574
-303.15
-306.64
-310.045
-313.364
-316.6
-319.753
-322.823
-325.812
-328.721
-331.55
-334.301
-336.973
-339.569
-342.088
-344.531
-346.901
-349.196
-351.418
-353.567
-355.645
-357.653
-359.59
-361.457
-363.256
-364.987
-366.651
-368.248
-369.779
-371.244
-372.645
-373.982
-375.256
-376.466
-377.615
-378.701
-379.726
-380.689
-381.593
-382.435
-383.215
-383.94
-384.613
-385.222
-385.767
-386.257
-386.691
-387.068
-387.393
-387.688
-387.937
-388.085
-388.149
-388.151
-388.094
-387.977
-387.802
-387.567
-387.274
-386.923
-386.512
-386.043
-385.514
-384.926
-384.279
-383.573
-382.806
-381.979
-381.092
-380.144
-379.135
-378.065
-376.932
-375.738
-374.481
-373.162
-371.774
-370.278
-368.871
-367.284
-365.641
-363.928
-362.149
-360.302
-358.387
-356.403
-354.348
-352.223
-350.026
-347.757
-345.414
-342.996
-340.503
-337.934
-335.287
-332.562
-329.757
-326.872
-323.904
-320.854
-317.72
-314.5
-311.194
-307.8
-304.317
-300.744
-297.08
-293.323
-289.473
-285.527
-281.485
-277.345
-273.107
-268.769
-264.328
-259.785
-255.137
-250.387
-245.533
-240.575
-235.509
-230.337
-225.057
-219.668
-214.171
-208.564
-202.846
-197.017
-191.077
-185.029
-178.874
-172.61
-166.238
-159.757
-153.168
-146.473
-139.671
-132.764
-125.752
-118.638
-111.422
-104.105
-96.6892
-89.1762
-81.5679
-73.8661
-66.0728
-58.1907
-50.2217
-42.1681
-34.0323
-25.8169
-17.5243
-9.15755
-0.719761
7.78552
16.3553
24.9862
33.6743
42.4155
51.205
60.0382
68.9189
77.8384
86.7875
95.7744
104.783
113.806
122.843
131.888
140.938
149.99
159.035
168.072
177.096
186.103
195.086
204.039
212.958
221.838
230.674
239.462
248.196
256.872
265.484
274.026
282.495
290.885
299.192
307.411
315.537
323.566
331.492
339.31
347.018
354.609
362.079
369.424
376.641
383.725
390.672
397.478
404.141
410.655
417.017
423.224
429.273
435.16
440.882
446.436
451.819
457.028
462.061
466.915
471.588
476.079
480.384
484.503
488.434
492.176
495.728
499.089
502.257
505.233
508.016
510.605
513.001
515.204
517.214
519.032
520.659
522.097
523.346
524.414
525.297
526.021
526.569
526.978
527.313
527.791
-530.837
-523.172
-515.417
-507.568
-499.609
-491.52
-483.266
-474.801
-466.083
-457.004
-447.336
-436.626
-423.579
-397.392
-368.38
-350.304
-334.762
-320.418
-306.749
-293.492
-280.495
-267.667
-254.945
-242.288
-229.67
-217.072
-204.479
-191.885
-179.282
-166.669
-154.043
-141.405
-128.756
-116.097
-103.431
-90.7616
-78.0923
-65.4272
-52.7709
-40.1281
-27.5039
-14.9035
-2.33256
10.2033
22.6983
35.1464
47.5416
59.8776
72.1482
84.3471
96.4678
108.504
120.449
132.296
144.039
155.67
167.185
178.575
189.836
200.96
211.941
222.771
233.444
243.952
254.287
264.438
274.394
284.14
293.662
302.945
311.977
320.752
329.265
337.51
345.485
353.189
360.619
367.776
374.66
381.27
387.607
393.673
399.468
404.996
410.258
415.257
419.995
424.476
428.704
432.682
436.411